#LAMMPS data file      

2085 atoms       
211 ellipsoids       
6117 bonds       
0 angles       
0 dihedrals       
0 impropers       

42 atom types      
4586 bond types      
0 angle types      

-277.816511453119 277.816511453119 xlo xhi     
-277.816511453119 277.816511453119 ylo yhi     
-277.816511453119 277.816511453119 zlo zhi     

Atoms        

1 13 10.37512822934923 84.10081147311578 -18.60200763541268 0 1 1 0
2 1 11.894128229349235 80.83381147311579 -19.70400763541268 0 1 1 0
3 2 11.027128229349245 78.53981147311578 -22.56600763541268 0 1 1 1
4 17 12.658128229349245 75.36681147311577 -23.77600763541268 0 1 1 0
5 12 11.694128229349246 72.97681147311579 -26.52500763541268 0 1 1 1
6 6 13.422128229349227 69.90181147311577 -27.85300763541268 0 1 1 0
7 17 12.376128229349234 67.41081147311579 -30.47900763541268 0 1 1 0
8 1 14.178128229349227 64.43781147311577 -31.93300763541268 0 1 1 0
9 2 13.063128229349246 61.84381147311577 -34.42800763541268 0 1 1 1
10 12 14.924128229349236 58.97681147311578 -36.01700763541268 0 1 1 1
11 16 13.76412822934924 56.27481147311577 -38.37400763541268 0 1 1 0
12 17 15.66112822934923 53.51481147311578 -40.10200763541268 0 1 1 0
13 8 14.478128229349238 50.70581147311578 -42.31800763541268 0 1 1 0
14 8 16.39112822934925 48.05381147311578 -44.18900763541268 0 1 1 0
15 12 15.207128229349252 45.14281147311578 -46.27900763541268 0 1 1 1
16 1 17.132128229349235 42.62281147311578 -48.31500763541268 0 1 1 0
17 15 15.985128229349243 39.65181147311578 -50.36800763541268 0 1 1 0
18 2 17.499128229349253 36.34881147311578 -49.25200763541268 0 1 1 1
19 12 16.43112822934924 32.80981147311578 -48.51600763541268 0 1 1 1
20 6 18.311128229349237 29.92281147311578 -46.98900763541268 0 1 1 0
21 11 17.19512822934925 26.437811473115772 -46.08900763541268 0 1 1 0
22 1 19.118128229349253 23.496811473115777 -44.72900763541268 0 1 1 0
23 17 17.973128229349243 20.069811473115777 -43.66200763541268 0 1 1 0
24 12 19.914128229349245 17.067811473115775 -42.46800763541268 0 1 1 1
25 1 18.75612822934923 13.701811473115775 -41.23100763541268 0 1 1 0
26 1 20.696128229349227 10.639811473115778 -40.20500763541268 0 1 1 0
27 2 19.549128229349236 7.336811473115773 -38.80000763541268 0 1 1 1
28 12 21.47012822934923 4.209811473115778 -37.941007635412674 0 1 1 1
29 16 20.355128229349248 0.9708114731157735 -36.37000763541268 0 1 1 0
30 1 22.235128229349243 -2.220188526884222 -35.67400763541268 0 1 1 0
31 15 21.166128229349255 -5.453188526884226 -34.01300763541268 0 1 1 0
32 1 23.253128229349244 -6.369188526884226 -30.97100763541268 0 1 1 0
33 17 22.78412822934925 -7.556188526884224 -27.42600763541268 0 1 1 0
34 8 25.239128229349234 -7.931188526884224 -24.59300763541268 0 1 1 0
35 8 24.739128229349234 -8.947188526884226 -20.99900763541268 0 1 1 0
36 20 27.215128229349233 -9.494188526884226 -18.21200763541268 0 1 1 0
37 12 26.703128229349232 -10.338188526884224 -14.575007635412678 0 1 1 1
38 12 29.180128229349236 -11.061188526884223 -11.828007635412678 0 1 1 1
39 15 28.230128229349248 -9.389188526884226 -8.512007635412678 0 1 1 0
40 9 25.75212822934924 -11.465188526884226 -6.490007635412679 0 1 1 0.5
41 2 22.334128229349233 -9.930188526884226 -6.000007635412679 0 1 1 1
42 19 19.197128229349232 -11.436188526884223 -4.43100763541268 0 1 1 0
43 2 15.972128229349238 -11.142188526884226 -6.402007635412678 0 1 1 1
44 15 13.359128229349238 -8.790188526884226 -4.910007635412679 0 1 1 0
45 8 11.434128229349227 -10.055188526884226 -1.9320076354126776 0 1 1 0
46 37 13.936128229349237 -12.751188526884224 -1.09100763541268 0 1 1 0
47 40 15.608128229349234 -10.723188526884226 1.6129923645873203 0 1 1 0
48 21 12.30812822934925 -9.394188526884225 2.9879923645873205 0 1 1 0
49 31 10.962128229349247 -12.910188526884223 3.0969923645873223 0 1 1 0
50 22 14.16512822934925 -13.706188526884226 4.936992364587322 0 1 1 1
51 27 13.622128229349244 -10.720188526884225 7.245992364587323 0 1 1 -1
52 30 10.122128229349244 -11.849188526884223 8.19099236458732 0 1 1 0
53 22 11.319128229349246 -15.276188526884226 9.27899236458732 0 1 1 1
54 22 14.031128229349235 -13.601188526884226 11.333992364587324 0 1 1 1
55 39 11.879128229349249 -11.111188526884224 13.21699236458732 0 1 1 0
56 26 9.035128229349255 -13.541188526884223 13.843992364587322 0 1 1 0
57 32 11.666128229349255 -15.642188526884226 15.593992364587322 0 1 1 1
58 36 12.983128229349234 -12.908188526884224 17.860992364587318 0 1 1 0
59 37 11.209128229349233 -10.932188526884225 20.568992364587324 0 1 1 0
60 27 13.41512822934925 -7.862188526884225 20.973992364587325 0 1 1 -1
61 31 12.099128229349247 -4.346188526884227 20.51899236458732 0 1 1 0
62 31 12.443128229349242 -2.9741885268842267 17.01299236458732 0 1 1 0
63 30 12.148128229349254 0.7188114731157782 17.751992364587323 0 1 1 0
64 22 15.13712822934923 2.6968114731157726 18.955992364587324 0 1 1 1
65 32 14.810128229349232 3.0888114731157756 22.73499236458732 0 1 1 1
66 31 16.134128229349244 6.634811473115775 23.12199236458732 0 1 1 0
67 35 14.069128229349246 8.047811473115779 20.22499236458732 0 1 1 0
68 34 10.979128229349243 6.355811473115779 21.623992364587323 0 1 1 0
69 26 11.54612822934925 7.887811473115775 25.043992364587325 0 1 1 0
70 22 11.827128229349228 11.373811473115772 23.586992364587324 0 1 1 1
71 31 8.567128229349237 10.662811473115774 21.75099236458732 0 1 1 0
72 40 6.815128229349227 9.648811473115778 24.964992364587324 0 1 1 0
73 22 7.928128229349227 12.530811473115776 27.20199236458732 0 1 1 1
74 27 7.176128229349246 15.008811473115777 24.431992364587323 0 1 1 -1
75 30 3.6091282293492384 13.727811473115779 24.056992364587323 0 1 1 0
76 21 3.188128229349246 13.320811473115775 27.794992364587323 0 1 1 0
77 26 4.29012822934925 16.929811473115777 28.196992364587324 0 1 1 0
78 24 1.3601282293492432 18.286811473115776 26.156992364587325 0 1 1 -1
79 34 -0.8128717706507587 16.889811473115778 28.96299236458732 0 1 1 0
80 32 1.0811282293492468 17.723811473115774 32.15799236458732 0 1 1 1
81 37 4.266128229349249 19.781811473115773 32.62599236458732 0 1 1 0
82 24 7.360128229349243 18.59681147311578 34.51299236458732 0 1 1 -1
83 31 6.664128229349245 14.848811473115774 34.586992364587324 0 1 1 0
84 22 8.880128229349253 11.942811473115775 35.57399236458732 0 1 1 1
85 34 8.570128229349251 8.386811473115777 34.21899236458732 0 1 1 0
86 26 9.460128229349237 5.204811473115775 36.09399236458732 0 1 1 0
87 36 12.203128229349232 3.6468114731157755 33.952992364587324 0 1 1 0
88 36 9.80212822934925 0.6998114731157727 33.51799236458732 0 1 1 0
89 21 6.701128229349251 2.6968114731157726 32.62399236458732 0 1 1 0
90 40 8.481128229349252 3.634811473115775 29.409992364587325 0 1 1 0
91 33 9.343128229349247 0.03681147311577604 28.62899236458732 0 1 1 0
92 21 5.688128229349246 -0.8021885268842226 29.16799236458732 0 1 1 0
93 31 4.6321282293492345 1.9308114731157744 26.781992364587325 0 1 1 0
94 26 7.042128229349231 0.6168114731157743 24.06999236458732 0 1 1 0
95 27 5.992128229349248 -2.9781885268842245 24.66199236458732 0 1 1 -1
96 21 2.3821282293492345 -1.9131885268842268 24.21299236458732 0 1 1 0
97 25 3.120128229349234 0.33181147311577774 21.24999236458732 0 1 1 0
98 27 5.205128229349242 -2.193188526884228 19.34099236458732 0 1 1 -1
99 21 2.6961282293492275 -4.972188526884224 20.007992364587324 0 1 1 0
100 39 -0.16287177065075298 -2.7931885268842223 18.797992364587323 0 1 1 0
101 31 1.5761282293492513 -2.007188526884228 15.53399236458732 0 1 1 0
102 40 2.6901282293492272 -5.569188526884226 14.828992364587322 0 1 1 0
103 28 -0.8808717706507707 -6.751188526884224 15.37599236458732 0 1 1 0
104 31 -2.161871770650748 -3.969188526884224 13.11899236458732 0 1 1 0
105 34 0.2301282293492477 -4.917188526884225 10.312992364587323 0 1 1 0
106 27 -0.9708717706507457 -8.523188526884226 10.668992364587323 0 1 1 -1
107 24 -4.511871770650771 -7.349188526884223 10.01199236458732 0 1 1 -1
108 37 -3.4088717706507623 -4.921188526884222 7.294992364587323 0 1 1 0
109 23 -1.4918717706507607 -7.673188526884225 5.520992364587322 0 1 1 0
110 31 -4.716871770650755 -9.659188526884225 5.601992364587321 0 1 1 0
111 25 -6.349871770650765 -6.751188526884224 3.8339923645873206 0 1 1 0
112 21 -3.7088717706507452 -6.355188526884223 1.119992364587322 0 1 1 0
113 30 -3.810871770650749 -10.055188526884226 0.4629923645873219 0 1 1 0
114 29 -7.6038717706507555 -9.842188526884225 0.2749923645873231 0 1 1 0.5
115 21 -7.395871770650757 -7.167188526884225 -2.438007635412678 0 1 1 0
116 32 -5.058871770650768 -9.540188526884226 -4.287007635412678 0 1 1 1
117 22 -1.9148717706507625 -7.5441885268842235 -3.499007635412678 0 1 1 1
118 40 1.2071282293492516 -8.278188526884225 -1.4540076354126796 0 1 1 0
119 37 2.009128229349244 -4.627188526884225 -0.875007635412679 0 1 1 0
120 30 0.4171282293492311 -3.1401885268842236 2.232992364587321 0 1 1 0
121 33 -0.9138717706507578 0.32181147311577263 1.2909923645873214 0 1 1 0
122 35 -2.425871770650758 3.0048114731157725 3.56299236458732 0 1 1 0
123 32 -5.983871770650751 2.030811473115776 2.6639923645873225 0 1 1 1
124 24 -5.3468717706507505 -1.503188526884223 3.8499923645873215 0 1 1 -1
125 30 -4.484871770650756 0.07581147311577752 7.22299236458732 0 1 1 0
126 26 -7.627871770650756 2.1498114731157756 7.031992364587321 0 1 1 0
127 31 -9.984871770650756 -0.7201885268842219 6.2329923645873215 0 1 1 0
128 21 -8.317871770650754 -2.669188526884227 9.05799236458732 0 1 1 0
129 22 -8.645871770650757 -0.019188526884221346 11.733992364587325 0 1 1 1
130 22 -12.128871770650761 0.6598114731157736 10.44899236458732 0 1 1 1
131 30 -13.325871770650764 -2.8941885268842213 11.01199236458732 0 1 1 0
132 22 -11.566871770650764 -2.979188526884222 14.370992364587323 0 1 1 1
133 28 -13.709871770650764 -0.03918852688422447 15.413992364587322 0 1 1 0
134 27 -10.718871770650765 2.2658114731157752 15.85999236458732 0 1 1 -1
135 22 -11.128871770650761 4.370811473115772 12.705992364587324 0 1 1 1
136 21 -10.47787177065075 8.101811473115774 12.520992364587322 0 1 1 0
137 13 70.35212822934923 52.326811473115775 -29.79500763541268 0 1 1 0
138 16 68.24212822934925 51.71281147311577 -26.73500763541268 0 1 1 0
139 8 65.39712822934925 49.31581147311578 -26.12800763541268 0 1 1 0
140 2 63.40512822934923 48.573811473115775 -23.01700763541268 0 1 1 1
141 8 60.44612822934923 46.308811473115775 -22.45400763541268 0 1 1 0
142 12 58.56212822934924 45.42881147311578 -19.31200763541268 0 1 1 1
143 8 55.495128229349234 43.305811473115774 -18.77500763541268 0 1 1 0
144 8 53.71412822934923 42.28081147311577 -15.617007635412678 0 1 1 0
145 12 50.549128229349236 40.305811473115774 -15.08700763541268 0 1 1 1
146 8 48.86312822934923 39.12781147311578 -11.928007635412678 0 1 1 0
147 11 45.60912822934924 37.30781147311577 -11.389007635412678 0 1 1 0
148 8 44.01012822934925 35.97481147311577 -8.248007635412678 0 1 1 0
149 12 40.676128229349246 34.31281147311578 -7.679007635412679 0 1 1 1
150 8 39.15112822934924 32.81981147311577 -4.573007635412679 0 1 1 0
151 8 35.75012822934923 31.31681147311577 -3.96000763541268 0 1 1 0
152 1 34.287128229349236 29.66381147311578 -0.9080076354126768 0 1 1 0
153 12 30.831128229349247 28.31981147311577 -0.2360076354126796 0 1 1 1
154 2 29.41712822934923 26.504811473115772 2.7489923645873238 0 1 1 1
155 9 25.91912822934924 25.316811473115777 3.495992364587323 0 1 1 0.5
156 2 24.53612822934923 23.347811473115776 6.395992364587322 0 1 1 1
157 12 21.009128229349244 22.313811473115777 7.22899236458732 0 1 1 1
158 20 19.64512822934924 20.195811473115775 10.031992364587325 0 1 1 0
159 11 16.105128229349248 19.306811473115772 10.967992364587325 0 1 1 0
160 2 14.75012822934923 17.045811473115776 13.660992364587322 0 1 1 1
161 4 11.173128229349231 16.273811473115778 14.717992364587325 0 1 1 -1
162 3 10.50812822934924 13.742811473115772 17.492992364587323 0 1 1 0
163 10 8.15912822934925 11.226811473115774 15.77199236458732 0 1 1 0
164 6 10.17712822934925 10.845811473115774 12.723992364587325 0 1 1 0
165 8 12.521128229349245 9.487811473115777 15.342992364587325 0 1 1 0
166 10 10.40512822934923 6.496811473115777 14.404992364587322 0 1 1 0
167 17 12.450128229349247 5.681811473115772 11.346992364587322 0 1 1 0
168 12 11.346128229349233 3.8688114731157768 8.20299236458732 0 1 1 1
169 35 13.829128229349237 1.0668114731157772 8.995992364587323 0 1 1 0
170 21 12.158128229349245 0.5138114731157728 12.370992364587323 0 1 1 0
171 30 8.609128229349238 0.5848114731157779 11.052992364587318 0 1 1 0
172 22 9.652128229349245 -1.8691885268842228 8.36899236458732 0 1 1 1
173 22 11.097128229349238 -4.186188526884223 11.02499236458732 0 1 1 1
174 31 7.797128229349227 -4.027188526884224 12.894992364587324 0 1 1 0
175 21 5.8491282293492475 -4.906188526884222 9.77199236458732 0 1 1 0
176 22 8.216128229349238 -7.796188526884226 9.06599236458732 0 1 1 1
177 22 7.294128229349241 -9.401188526884226 12.37799236458732 0 1 1 1
178 28 3.7781282293492495 -8.520188526884226 11.299992364587318 0 1 1 0
179 28 4.39912822934923 -10.840188526884226 8.370992364587323 0 1 1 0
180 40 4.369128229349229 -8.173188526884225 5.650992364587321 0 1 1 0
181 32 6.443128229349242 -8.448188526884223 2.462992364587322 0 1 1 1
182 22 6.039128229349245 -5.340188526884226 0.2629923645873226 0 1 1 1
183 30 5.513128229349235 -1.848188526884222 1.6709923645873204 0 1 1 0
184 36 3.9701282293492284 1.1268114731157723 -0.125007635412679 0 1 1 0
185 28 6.1061282293492525 4.198811473115775 0.5119923645873214 0 1 1 0
186 31 3.0951282293492284 6.060811473115777 1.9239923645873205 0 1 1 0
187 30 2.857128229349229 3.520811473115778 4.752992364587321 0 1 1 0
188 39 5.5351282293492545 5.125811473115775 6.915992364587321 0 1 1 0
189 27 3.8971282293492493 8.469811473115776 7.503992364587322 0 1 1 -1
190 27 0.5771282293492277 6.625811473115775 7.73499236458732 0 1 1 -1
191 37 2.1001282293492523 4.3968114731157755 10.415992364587323 0 1 1 0
192 22 3.5151282293492443 7.434811473115772 12.20799236458732 0 1 1 1
193 28 0.08912822934922815 8.996811473115777 12.45199236458732 0 1 1 0
194 40 -1.5558717706507537 5.841811473115776 13.76199236458732 0 1 1 0
195 31 1.1391282293492395 5.303811473115772 16.34499236458732 0 1 1 0
196 32 0.8651282293492386 8.929811473115777 17.42399236458732 0 1 1 1
197 40 -2.8308717706507593 8.507811473115773 18.15799236458732 0 1 1 0
198 34 -2.1778717706507678 5.297811473115779 20.12599236458732 0 1 1 0
199 31 0.4971282293492436 6.745811473115772 22.434992364587323 0 1 1 0
200 27 -1.6108717706507605 9.855811473115779 22.833992364587324 0 1 1 -1
201 23 -4.661871770650748 7.9508114731157775 24.04699236458732 0 1 1 0
202 40 -2.7158717706507502 5.7718114731157755 26.45199236458732 0 1 1 0
203 30 -0.4428717706507541 8.444811473115777 27.873992364587323 0 1 1 0
204 22 -3.4228717706507723 10.747811473115775 28.31199236458732 0 1 1 1
205 24 -5.250871770650747 8.235811473115774 30.49099236458732 0 1 1 -1
206 21 -1.9718717706507505 7.217811473115773 32.18599236458732 0 1 1 0
207 40 -1.2908717706507673 10.758811473115777 33.30499236458732 0 1 1 0
208 37 -4.888871770650752 11.284811473115774 34.43699236458732 0 1 1 0
209 39 -4.186871770650754 8.432811473115777 36.83299236458732 0 1 1 0
210 37 -0.7848717706507671 9.811811473115775 37.73799236458732 0 1 1 0
211 27 -2.4248717706507534 13.089811473115773 38.62299236458732 0 1 1 -1
212 29 -5.526871770650757 11.816811473115777 40.35699236458732 0 1 1 0.5
213 21 -3.000871770650747 9.967811473115773 42.52799236458733 0 1 1 0
214 32 -1.3998717706507477 13.361811473115772 43.17799236458732 0 1 1 1
215 22 1.9291282293492316 12.082811473115775 41.86299236458732 0 1 1 1
216 32 4.587128229349247 13.660811473115778 39.656992364587325 0 1 1 1
217 37 5.897128229349249 10.350811473115776 38.38799236458732 0 1 1 0
218 40 4.01212822934923 8.221811473115778 35.854992364587325 0 1 1 0
219 37 4.4671282293492425 4.712811473115778 37.30299236458732 0 1 1 0
220 21 4.299128229349236 1.4348114731157722 35.40499236458732 0 1 1 0
221 33 0.8951282293492397 0.7338114731157788 36.92899236458732 0 1 1 0
222 24 -0.49787177065076094 3.9268114731157766 35.46299236458732 0 1 1 -1
223 40 0.42612822934924566 2.6778114731157743 32.00399236458732 0 1 1 0
224 40 -0.86287177065077 -0.7961885268842224 32.69599236458732 0 1 1 0
225 39 -4.222871770650755 0.7318114731157763 33.69599236458732 0 1 1 0
226 21 -4.310871770650749 3.158811473115776 30.830992364587324 0 1 1 0
227 31 -3.7018717706507687 0.15681147311577348 28.59399236458732 0 1 1 0
228 32 -6.397871770650767 -1.902188526884224 30.309992364587323 0 1 1 1
229 22 -9.23587177065076 0.49181147311577433 29.687992364587323 0 1 1 1
230 26 -8.10687177065077 0.9158114731157738 26.071992364587324 0 1 1 0
231 28 -9.014871770650757 -2.764188526884226 25.95699236458732 0 1 1 0
232 22 -5.338871770650769 -3.655188526884224 25.522992364587324 0 1 1 1
233 37 -4.185871770650749 -5.743188526884225 28.547992364587323 0 1 1 0
234 31 -0.48387177065075093 -6.0661885268842255 29.345992364587325 0 1 1 0
235 39 1.229128229349243 -8.853188526884225 31.27199236458732 0 1 1 0
236 28 4.7571282293492345 -8.337188526884226 32.52399236458732 0 1 1 0
237 34 4.810128229349232 -4.990188526884225 34.31199236458732 0 1 1 0
238 28 2.63712822934923 -5.5661885268842255 37.35899236458732 0 1 1 0
239 28 5.580128229349242 -6.335188526884224 39.63999236458732 0 1 1 0
240 13 -64.09187177065076 22.223811473115774 80.26399236458732 0 1 1 0
241 16 -61.867871770650765 20.615811473115777 77.68199236458733 0 1 1 0
242 16 -59.39387177065076 22.113811473115774 75.26599236458733 0 1 1 0
243 2 -57.03987177065076 20.492811473115772 72.80899236458731 0 1 1 1
244 8 -54.695871770650754 21.993811473115777 70.26799236458731 0 1 1 0
245 8 -52.212871770650764 20.384811473115775 67.93499236458732 0 1 1 0
246 12 -49.996871770650756 21.865811473115777 65.27099236458733 0 1 1 1
247 12 -47.38487177065076 20.284811473115774 63.06099236458733 0 1 1 1
248 12 -45.29487177065076 21.726811473115774 60.27599236458732 0 1 1 1
249 16 -42.55787177065076 20.195811473115775 58.18599236458733 0 1 1 0
250 17 -40.57187177065076 21.581811473115778 55.29099236458732 0 1 1 0
251 12 -37.67487177065075 20.100811473115776 53.30999236458732 0 1 1 1
252 17 -35.588871770650755 20.959811473115778 50.24299236458732 0 1 1 0
253 16 -34.30287177065075 18.176811473115777 47.98199236458732 0 1 1 0
254 2 -30.51287177065076 18.135811473115773 47.616992364587325 0 1 1 1
255 16 -31.224871770650765 18.252811473115777 43.887992364587326 0 1 1 0
256 1 -32.68487177065076 21.739811473115772 44.34999236458732 0 1 1 0
257 32 -29.81287177065076 22.79181147311578 46.55099236458732 0 1 1 1
258 21 -27.35787177065076 21.946811473115773 43.74099236458732 0 1 1 0
259 28 -29.59287177065076 23.137811473115775 40.91699236458732 0 1 1 0
260 40 -30.297871770650758 19.870811473115772 39.13799236458732 0 1 1 0
261 30 -33.334871770650764 17.941811473115777 38.00299236458732 0 1 1 0
262 34 -31.87587177065076 14.475811473115776 38.42199236458732 0 1 1 0
263 35 -32.37587177065076 12.860811473115774 41.90299236458733 0 1 1 0
264 40 -29.26887177065076 13.612811473115777 43.97299236458732 0 1 1 0
265 28 -30.30987177065076 11.611811473115772 47.01799236458732 0 1 1 0
266 22 -31.648871770650757 8.719811473115776 45.00199236458732 0 1 1 1
267 33 -28.188871770650763 8.504811473115772 43.49699236458732 0 1 1 0
268 31 -26.231871770650756 8.637811473115775 46.70799236458732 0 1 1 0
269 22 -28.316871770650764 5.522811473115773 47.50299236458732 0 1 1 1
270 39 -27.58687177065076 3.8498114731157784 44.17399236458733 0 1 1 0
271 30 -23.89087177065076 4.500811473115775 44.66099236458732 0 1 1 0
272 32 -24.073871770650754 2.7928114731157763 48.02199236458733 0 1 1 1
273 32 -26.20887177065076 -0.23718852688422487 47.09399236458732 0 1 1 1
274 28 -23.513871770650766 -0.723188526884222 44.42299236458732 0 1 1 0
275 29 -20.14087177065076 -0.032188526884226576 46.06099236458733 0 1 1 0.5
276 35 -20.72987177065076 -0.7521885268842254 49.78699236458733 0 1 1 0
277 32 -17.388871770650766 -0.42918852688422504 51.32699236458732 0 1 1 1
278 39 -16.654871770650757 3.1068114731157763 50.44299236458732 0 1 1 0
279 22 -18.050871770650758 6.250811473115775 51.95899236458733 0 1 1 1
280 30 -19.650871770650753 8.666811473115779 49.53699236458733 0 1 1 0
281 28 -18.641871770650766 12.297811473115779 49.82799236458733 0 1 1 0
282 40 -21.82187177065076 14.332811473115775 49.92099236458733 0 1 1 0
283 28 -20.725871770650755 15.796811473115774 46.57599236458733 0 1 1 0
284 21 -20.254871770650766 12.650811473115773 44.47299236458732 0 1 1 0
285 35 -23.960871770650755 11.854811473115774 44.02699236458732 0 1 1 0
286 40 -24.33687177065076 15.590811473115778 43.29799236458732 0 1 1 0
287 39 -21.591871770650755 15.632811473115773 40.67799236458732 0 1 1 0
288 33 -22.969871770650755 12.464811473115773 39.18299236458732 0 1 1 0
289 21 -26.51887177065076 13.790811473115774 38.81899236458733 0 1 1 0
290 21 -25.123871770650766 16.915811473115774 37.20599236458733 0 1 1 0
291 40 -23.06887177065076 15.042811473115776 34.57899236458732 0 1 1 0
292 31 -25.847871770650755 12.639811473115778 33.790992364587325 0 1 1 0
293 27 -28.47687177065076 15.365811473115777 33.32999236458732 0 1 1 -1
294 39 -25.95887177065076 17.202811473115773 31.156992364587325 0 1 1 0
295 31 -25.444871770650764 14.198811473115775 28.89299236458732 0 1 1 0
296 37 -29.094871770650755 13.338811473115776 28.68299236458732 0 1 1 0
297 21 -29.783871770650762 17.004811473115772 27.82599236458732 0 1 1 0
298 27 -27.212871770650764 16.851811473115774 24.961992364587324 0 1 1 -1
299 30 -28.74787177065076 13.788811473115778 23.33899236458732 0 1 1 0
300 31 -32.314871770650754 15.103811473115776 23.791992364587323 0 1 1 0
301 27 -31.35187177065076 18.357811473115774 22.12599236458732 0 1 1 -1
302 31 -30.191871770650764 16.380811473115777 19.09399236458732 0 1 1 0
303 21 -32.93287177065076 13.783811473115776 19.162992364587325 0 1 1 0
304 40 -35.588871770650755 16.512811473115775 19.34099236458732 0 1 1 0
305 23 -34.219871770650755 18.331811473115778 16.28999236458732 0 1 1 0
306 21 -33.91987177065076 14.961811473115773 14.59199236458732 0 1 1 0
307 21 -37.602871770650765 14.361811473115772 15.406992364587325 0 1 1 0
308 22 -38.606871770650756 17.79781147311578 14.120992364587323 0 1 1 1
309 24 -36.74187177065076 17.509811473115775 10.805992364587318 0 1 1 -1
310 23 -38.501871770650766 14.195811473115775 10.38799236458732 0 1 1 0
311 32 -41.641871770650766 16.304811473115777 10.93999236458732 0 1 1 1
312 32 -42.62587177065076 14.407811473115778 14.074992364587324 0 1 1 1
313 28 -44.00887177065076 15.779811473115778 17.32399236458732 0 1 1 0
314 22 -42.752871770650756 12.891811473115773 19.44799236458732 0 1 1 1
315 40 -39.16387177065076 11.613811473115774 19.74799236458732 0 1 1 0
316 37 -38.58687177065076 7.911811473115776 19.041992364587323 0 1 1 0
317 35 -35.605871770650765 5.515811473115775 19.15599236458732 0 1 1 0
318 22 -34.805871770650754 6.1298114731157725 15.501992364587323 0 1 1 1
319 29 -34.40387177065075 9.778811473115773 16.418992364587325 0 1 1 0.5
320 30 -32.105871770650765 9.013811473115773 19.27799236458732 0 1 1 0
321 31 -30.054871770650763 6.873811473115772 16.925992364587323 0 1 1 0
322 31 -29.698871770650754 9.492811473115772 14.212992364587322 0 1 1 0
323 21 -28.850871770650755 11.953811473115778 16.967992364587325 0 1 1 0
324 40 -26.126871770650766 9.737811473115777 18.39999236458732 0 1 1 0
325 21 -25.078871770650764 8.307811473115777 15.040992364587323 0 1 1 0
326 23 -24.38187177065076 11.741811473115774 13.541992364587324 0 1 1 0
327 24 -22.621871770650756 13.283811473115776 16.544992364587323 0 1 1 -1
328 27 -18.97087177065076 12.290811473115774 16.63999236458732 0 1 1 -1
329 27 -18.58387177065076 12.279811473115778 20.42399236458732 0 1 1 -1
330 31 -21.919871770650758 10.776811473115778 21.42699236458732 0 1 1 0
331 23 -21.209871770650764 8.147811473115773 18.79699236458732 0 1 1 0
332 26 -17.861871770650765 7.513811473115773 20.422992364587323 0 1 1 0
333 31 -19.398871770650757 7.384811473115775 23.92999236458732 0 1 1 0
334 31 -21.712871770650764 4.713811473115776 22.66799236458732 0 1 1 0
335 32 -19.397871770650752 2.053811473115772 21.18899236458732 0 1 1 1
336 28 -20.986871770650765 -1.3451885268842219 21.31699236458732 0 1 1 0
337 40 -24.331871770650764 0.05081147311577183 22.22299236458732 0 1 1 0
338 37 -27.347871770650755 -1.2101885268842238 20.29999236458732 0 1 1 0
339 30 -30.33387177065076 1.0868114731157732 20.12199236458732 0 1 1 0
340 21 -33.29487177065076 -1.2271885268842269 19.897992364587324 0 1 1 0
341 36 -35.69087177065076 -0.2121885268842263 17.129992364587324 0 1 1 0
342 28 -33.07787177065076 2.371811473115777 16.25599236458732 0 1 1 0
343 28 -32.21487177065076 1.5678114731157748 12.665992364587323 0 1 1 0
344 40 -29.00987177065076 2.5728114731157774 10.88099236458732 0 1 1 0
345 31 -27.608871770650765 5.729811473115774 9.427992364587322 0 1 1 0
346 35 -28.609871770650756 5.7548114731157725 5.797992364587323 0 1 1 0
347 23 -25.45887177065076 5.468811473115778 3.720992364587321 0 1 1 0
348 30 -24.786871770650762 3.8798114731157725 0.3549923645873214 0 1 1 0
349 29 -21.216871770650755 3.442811473115775 -0.853007635412677 0 1 1 0.5
350 35 -20.524871770650762 5.269811473115773 -4.15200763541268 0 1 1 0
351 27 -19.283871770650762 2.1268114731157723 -5.906007635412678 0 1 1 -1
352 31 -22.754871770650766 0.7268114731157738 -5.481007635412677 0 1 1 0
353 31 -24.480871770650765 3.5188114731157754 -7.443007635412679 0 1 1 0
354 21 -24.886871770650757 2.468811473115778 -11.073007635412678 0 1 1 0
355 32 -24.405871770650762 3.992811473115772 -14.53900763541268 0 1 1 1
356 12 -21.454871770650755 6.326811473115775 -15.19500763541268 0 1 1 1
357 2 -20.67887177065076 10.051811473115777 -15.19500763541268 0 1 1 1
358 8 -17.47687177065076 11.924811473115774 -15.86300763541268 0 1 1 0
359 16 -16.76587177065076 15.617811473115772 -16.069007635412678 0 1 1 0
360 11 -13.858871770650765 18.060811473115777 -15.976007635412678 0 1 1 0
361 7 -13.163871770650758 20.53581147311578 -13.220007635412678 0 1 1 -1
362 1 -10.261871770650771 22.873811473115772 -12.666007635412678 0 1 1 0
363 10 -9.648871770650771 25.472811473115776 -10.00700763541268 0 1 1 0
364 10 -6.6718717706507675 27.68581147311577 -9.34700763541268 0 1 1 0
365 17 -6.125871770650747 30.40781147311578 -6.801007635412679 0 1 1 0
366 15 -3.1138717706507464 32.58181147311577 -6.052007635412679 0 1 1 0
367 15 -1.7818717706507528 32.23981147311577 -2.48600763541268 0 1 1 0
368 15 -2.142871770650771 35.40581147311577 -0.375007635412679 0 1 1 0
369 1 1.1821282293492459 36.92281147311578 0.6709923645873204 0 1 1 0
370 12 1.9771282293492334 39.92981147311577 2.797992364587323 0 1 1 1
371 12 5.27012822934924 41.320811473115775 3.989992364587323 0 1 1 1
372 1 6.077128229349228 44.42581147311578 5.966992364587323 0 1 1 0
373 12 9.350128229349252 45.72681147311578 7.307992364587321 0 1 1 1
374 16 10.187128229349241 48.918811473115774 9.12799236458732 0 1 1 0
375 15 13.446128229349227 50.207811473115775 10.56999236458732 0 1 1 0
376 16 13.285128229349255 50.930811473115774 14.297992364587325 0 1 1 0
377 6 15.86912822934923 52.311811473115775 16.669992364587323 0 1 1 0
378 12 15.652128229349245 53.204811473115775 20.324992364587324 0 1 1 1
379 12 18.281128229349235 54.415811473115774 22.73899236458732 0 1 1 1
380 15 18.072128229349232 55.412811473115774 26.388992364587324 0 1 1 0
381 20 19.216128229349238 58.97381147311578 27.06799236458732 0 1 1 0
382 16 19.50812822934924 60.912811473115774 30.28399236458732 0 1 1 0
383 12 20.82012822934925 64.37881147311577 30.976992364587325 0 1 1 1
384 12 20.949128229349242 66.38781147311579 34.162992364587325 0 1 1 1
385 8 22.422128229349227 69.77981147311579 34.89399236458732 0 1 1 0
386 1 22.396128229349245 71.86581147311577 38.03099236458732 0 1 1 0
387 2 24.017128229349254 75.17581147311577 38.81699236458732 0 1 1 1
388 12 23.846128229349233 77.34881147311577 41.890992364587326 0 1 1 1
389 16 25.606128229349252 80.56781147311577 42.74999236458732 0 1 1 0
390 12 25.30412822934923 82.83281147311578 45.747992364587326 0 1 1 1
391 12 27.18912822934925 85.95781147311578 46.69199236458733 0 1 1 1
392 12 26.769128229349235 88.32081147311578 49.59799236458732 0 1 1 1
393 6 28.76412822934924 91.34381147311578 50.63999236458732 0 1 1 0
394 8 28.24412822934923 93.81181147311577 53.43999236458732 0 1 1 0
395 7 30.334128229349233 96.72881147311577 54.59099236458732 0 1 1 -1
396 20 29.729128229349243 99.30281147311578 57.27499236458733 0 1 1 0
397 16 31.89512822934924 102.10981147311577 58.54699236458732 0 1 1 0
398 14 31.222128229349238 104.79381147311577 61.10599236458732 0 1 1 0
399 1 33.44512822934925 107.49381147311576 62.509992364587326 0 1 1 0
400 1 32.72112822934923 110.28481147311578 64.93499236458732 0 1 1 0
401 16 34.98412822934924 112.87381147311578 66.47599236458731 0 1 1 0
402 1 34.23012822934925 115.77581147311577 68.76099236458731 0 1 1 0
403 4 36.511128229349254 118.25881147311577 70.44499236458734 0 1 1 -1
404 16 35.75212822934924 121.26581147311578 72.58399236458732 0 1 1 0
405 17 38.03212822934924 123.64381147311576 74.41299236458732 0 1 1 0
406 17 37.28812822934924 126.75181147311577 76.40599236458732 0 1 1 0
407 7 39.54712822934923 129.02981147311576 78.38199236458732 0 1 1 -1
408 8 38.83212822934925 132.23681147311578 80.22599236458731 0 1 1 0
409 17 41.04812822934923 134.41981147311577 82.34999236458731 0 1 1 0
410 15 40.384128229349244 137.69481147311578 84.13499236458733 0 1 1 0
411 1 42.68412822934923 140.51881147311576 83.04999236458733 0 1 1 0
412 4 42.95312822934923 144.08981147311576 84.22599236458731 0 1 1 -1
413 8 43.70412822934924 146.65381147311578 85.69599236458731 0 1 1 0
414 14 40.20412822934924 147.83081147311577 84.79599236458733 0 1 1 0
415 17 37.31812822934924 146.36781147311578 82.80599236458733 0 1 1 0
416 20 35.781128229349235 147.83481147311576 79.66099236458732 0 1 1 0
417 11 31.975128229349252 147.95881147311576 79.86999236458732 0 1 1 0