#LAMMPS data file

1626 atoms
211 ellipsoids
4532 bonds
0 angles
0 dihedrals
0 impropers

42 atom types
3207 bond types
0 angle types

-225.6070941214928 225.6070941214928 xlo xhi
-225.6070941214928 225.6070941214928 ylo yhi
-225.6070941214928 225.6070941214928 zlo zhi

Atoms

1 13 -49.55908426459762 95.39263821331997 -61.679323019911806 0  1 1 0
2 8 -45.93508426459762 95.87663821331995 -60.76632301991181 0  1 1 0
3 15 -43.232084264597624 93.39863821331997 -59.8183230199118 0  1 1 0
4 2 -41.70608426459762 94.03863821331996 -56.396323019911804 0  1 1 1
5 2 -38.933084264597625 92.27763821331996 -54.5493230199118 0  1 1 1
6 2 -37.296084264597624 93.02963821331997 -51.2393230199118 0  1 1 1
7 16 -34.64808426459762 91.16863821331995 -49.3093230199118 0  1 1 0
8 2 -32.88208426459762 92.00963821331996 -46.08732301991181 0  1 1 1
9 12 -30.364084264597622 90.06763821331995 -44.063323019911806 0  1 1 1
10 15 -28.502084264597627 90.92663821331996 -40.877323019911806 0  1 1 0
11 7 -24.720084264597624 90.83263821331997 -41.246323019911806 0  1 1 -1
12 1 -21.969084264597626 91.40963821331997 -38.737323019911805 0  1 1 0
13 15 -18.198084264597625 91.21763821331996 -39.057323019911806 0  1 1 0
14 2 -16.589084264597624 88.73063821331996 -36.676323019911806 0  1 1 1
15 2 -12.974084264597622 87.83463821331995 -36.0983230199118 0  1 1 1
16 2 -11.369084264597625 85.50663821331995 -33.6073230199118 0  1 1 1
17 16 -7.774084264597626 84.47463821331996 -33.1443230199118 0  1 1 0
18 15 -6.120084264597622 82.21263821331996 -30.592323019911802 0  1 1 0
19 16 -3.3940842645976232 83.92863821331997 -28.573323019911804 0  1 1 0
20 15 -1.0090842645976181 82.61063821331996 -25.939323019911804 0  1 1 0
21 17 -1.2840842645976238 84.40363821331997 -22.5993230199118 0  1 1 0
22 15 0.6909157354023705 84.05163821331996 -19.38532301991181 0  1 1 0
23 17 -1.4470842645976205 83.16763821331995 -16.370323019911808 0  1 1 0
24 15 -0.5810842645976209 82.75963821331996 -12.704323019911797 0  1 1 0
25 8 -1.43508426459762 79.32863821331995 -11.307323019911806 0  1 1 0
26 15 -1.1800842645976246 77.90463821331997 -7.806323019911801 0  1 1 0
27 16 1.0129157354023732 74.80863821331997 -7.574323019911802 0  1 1 0
28 2 1.857915735402372 72.58163821331996 -4.653323019911809 0  1 1 1
29 2 3.878915735402373 69.40563821331995 -4.465323019911807 0  1 1 1
30 8 4.873915735402377 67.27563821331995 -1.5203230199117996 0  1 1 0
31 15 6.82091573540238 64.03263821331996 -1.3103230199118059 0  1 1 0
32 16 4.892915735402383 61.19963821331996 0.33367698008819957 0  1 1 0
33 11 5.892915735402383 57.65263821331996 1.1266769800881917 0  1 1 0
34 8 4.046915735402379 54.903638213319965 2.9246769800881935 0  1 1 0
35 1 4.968915735402376 51.30663821331996 3.5626769800881988 0  1 1 0
36 16 3.205915735402371 48.60663821331997 5.510676980088192 0  1 1 0
37 16 4.034915735402379 44.96263821331996 5.999676980088196 0  1 1 0
38 9 2.371915735402382 42.30263821331995 8.09067698008819 0  1 1 0.5
39 6 3.088915735402381 38.621638213319955 8.445676980088194 0  1 1 0
40 9 1.5439157354023791 35.996638213319955 10.665676980088193 0  1 1 0.5
41 16 2.1369157354023827 32.28363821331996 10.894676980088192 0  1 1 0
42 2 0.7229157354023812 29.689638213319952 13.2356769800882 0  1 1 1
43 2 1.1769157354023747 25.949638213319957 13.3516769800882 0  1 1 1
44 2 -0.09108426459762597 23.377638213319955 15.796676980088193 0  1 1 1
45 6 0.2119157354023713 19.621638213319955 15.817676980088194 0  1 1 0
46 28 -0.8980842645976281 17.058638213319952 18.347676980088195 0  1 1 0
47 38 -2.3280842645976207 15.079638213319953 20.023676980088197 0  1 1 0
48 31 -5.971084264597621 14.576638213319953 19.127676980088197 0  1 1 0
49 32 -7.0720842645976205 18.153638213319965 18.44167698008819 0  1 1 1
50 27 -4.465084264597621 18.77163821331996 15.787676980088193 0  1 1 -1
51 30 -5.1970842645976205 15.317638213319952 14.318676980088199 0  1 1 0
52 22 -8.769084264597623 16.400638213319965 13.710676980088195 0  1 1 1
53 32 -7.778084264597624 19.925638213319957 12.6966769800882 0  1 1 1
54 31 -5.246084264597627 18.73263821331996 10.1136769800882 0  1 1 0
55 26 -7.603084264597626 16.126638213319964 8.7296769800882 0  1 1 0
56 32 -10.617084264597622 18.438638213319962 8.46867698008819 0  1 1 1
57 36 -8.509084264597625 21.06063821331996 6.7266769800882 0  1 1 0
58 37 -7.754084264597623 20.715638213319963 3.038676980088198 0  1 1 0
59 29 -4.743084264597627 23.03763821331995 2.7266769800882003 0  1 1 0.5
60 31 -1.1880842645976202 22.03763821331995 1.869676980088201 0  1 1 0
61 31 1.4179157354023744 21.519638213319965 4.514676980088197 0  1 1 0
62 30 4.978915735402381 22.15563821331996 3.368676980088196 0  1 1 0
63 22 5.30991573540237 25.75663821331996 2.3496769800881907 0  1 1 1
64 32 5.993915735402382 27.50363821331996 -0.9623230199118069 0  1 1 1
65 31 9.55391573540237 28.865638213319954 -1.04632301991181 0  1 1 0
66 35 11.466915735402381 25.974638213319963 0.646676980088202 0  1 1 0
67 34 9.80091573540237 23.55763821331996 -1.732323019911803 0  1 1 0
68 36 10.592915735402372 25.827638213319958 -4.686323019911811 0  1 1 0
69 22 14.268915735402373 26.00663821331996 -3.7513230199118084 0  1 1 1
70 31 14.381915735402373 22.23263821331996 -3.1903230199118013 0  1 1 0
71 21 12.795915735402374 21.449638213319957 -6.564323019911811 0  1 1 0
72 22 14.987915735402382 23.93263821331996 -8.41532301991181 0  1 1 1
73 27 18.123915735402377 22.401638213319956 -6.888323019911809 0  1 1 -1
74 30 17.014915735402383 18.91863821331995 -7.947323019911806 0  1 1 0
75 25 16.388915735402378 20.114638213319964 -11.513323019911809 0  1 1 0
76 40 19.750915735402373 21.964638213319958 -11.584323019911807 0  1 1 0
77 32 21.429915735402375 18.606638213319954 -10.899323019911805 0  1 1 1
78 34 19.923915735402375 17.324638213319957 -14.18932301991181 0  1 1 0
79 37 19.44391573540237 19.36663821331996 -17.426323019911806 0  1 1 0
80 22 23.215915735402376 19.39363821331996 -18.188323019911806 0  1 1 1
81 28 23.60391573540238 22.248638213319964 -15.68332301991181 0  1 1 0
82 40 21.60691573540238 24.90263821331996 -17.521323019911804 0  1 1 0
83 24 18.67291573540237 25.891638213319965 -15.349323019911807 0  1 1 -1
84 34 15.054915735402375 25.812638213319957 -16.477323019911807 0  1 1 0
85 23 12.100915735402381 27.993638213319954 -15.480323019911808 0  1 1 0
86 38 9.57191573540237 26.14363821331996 -13.341323019911798 0  1 1 0
87 26 6.203915735402376 27.54663821331995 -14.310323019911806 0  1 1 0
88 21 4.598915735402372 28.703638213319962 -11.104323019911803 0  1 1 0
89 26 1.729915735402372 26.215638213319963 -11.093323019911807 0  1 1 0
90 21 4.068915735402371 23.255638213319955 -11.627323019911799 0  1 1 0
91 31 5.438915735402375 23.79563821331996 -8.134323019911804 0  1 1 0
92 31 1.9339157354023797 23.534638213319965 -6.710323019911797 0  1 1 0
93 21 1.5789157354023757 20.368638213319954 -8.807323019911806 0  1 1 0
94 31 4.8229157354023755 18.99463821331996 -7.446323019911802 0  1 1 0
95 26 4.232915735402372 19.728638213319954 -3.7763230199118 0  1 1 0
96 27 0.6879157354023704 18.392638213319955 -3.8593230199117983 0  1 1 -1
97 21 2.1369157354023827 15.257638213319964 -5.476323019911803 0  1 1 0
98 21 4.886915735402383 14.990638213319954 -2.8493230199118074 0  1 1 0
99 27 2.4509157354023756 15.635638213319965 -0.012323019911804067 0  1 1 -1
100 21 0.14091573540237334 12.888638213319965 -1.3123230199118012 0  1 1 0
101 34 3.104915735402372 10.505638213319955 -1.4363230199118107 0  1 1 0
102 31 4.3029157354023795 11.391638213319965 2.0776769800881993 0  1 1 0
103 40 0.8529157354023766 11.118638213319954 3.659676980088193 0  1 1 0
104 29 0.17291573540236982 7.709638213319963 2.0936769800881905 0  1 1 0.5
105 31 3.6499157354023737 6.571638213319957 3.193676980088199 0  1 1 0
106 34 3.1509157354023785 7.681638213319957 6.802676980088194 0  1 1 0
107 27 -0.29708426459762904 6.110638213319959 6.990676980088196 0  1 1 -1
108 24 0.935915735402375 2.7326382133199587 5.733676980088191 0  1 1 -1
109 21 3.9749157354023765 2.791638213319956 8.032676980088198 0  1 1 0
110 39 1.6969157354023707 3.647638213319965 10.905676980088202 0  1 1 0
111 31 -0.4690842645976261 0.6446382133199648 10.0746769800882 0  1 1 0
112 31 2.7749157354023737 -1.2913617866800422 10.437676980088199 0  1 1 0
113 37 3.5529157354023795 0.10963821331995405 13.8516769800882 0  1 1 0
114 31 0.0729157354023755 -0.46936178668003947 15.216676980088195 0  1 1 0
115 29 0.6299157354023777 -3.9533617866800483 13.877676980088197 0  1 1 0.5
116 21 3.9649157354023714 -4.337361786680049 15.665676980088193 0  1 1 0
117 28 2.588915735402381 -3.316361786680048 19.09067698008819 0  1 1 0
118 22 4.254915735402378 0.06663821331996189 19.5506769800882 0  1 1 1
119 40 2.7149157354023714 3.5166382133199647 19.20967698008819 0  1 1 0
120 37 5.610915735402372 5.65263821331996 17.829676980088195 0  1 1 0
121 31 6.915915735402379 5.665638213319951 14.256676980088201 0  1 1 0
122 34 10.482915735402372 4.3446382133199535 13.995676980088191 0  1 1 0
123 35 12.333915735402371 4.892638213319955 10.689676980088194 0  1 1 0
124 32 12.53291573540237 1.1776382133199519 9.9826769800882 0  1 1 1
125 24 8.736915735402377 1.231638213319954 9.70967698008819 0  1 1 -1
126 40 8.95491573540238 3.927638213319952 7.015676980088202 0  1 1 0
127 26 11.58591573540238 2.039638213319961 5.061676980088194 0  1 1 0
128 31 9.801915735402375 -1.2933617866800375 5.407676980088198 0  1 1 0
129 21 6.444915735402375 0.15963821331996542 4.349676980088191 0  1 1 0
130 22 8.30391573540237 1.417638213319961 1.3176769800881942 0  1 1 1
131 22 9.959915735402376 -1.9723617866800396 0.764676980088197 0  1 1 1
132 30 6.649915735402374 -3.879361786680036 0.7076769800881948 0  1 1 0
133 22 4.759915735402373 -1.613361786680045 -1.6963230199118016 0  1 1 1
134 28 7.31791573540238 -2.0953617866800442 -4.494323019911803 0  1 1 0
135 31 9.869915735402373 0.6196382133199592 -3.8793230199118085 0  1 1 0
136 27 11.762915735402373 -1.5093617866800457 -1.414323019911805 0  1 1 -1
137 27 11.96391573540238 -4.399361786680046 -3.823323019911797 0  1 1 -1
138 28 13.360915735402372 -2.224361786680035 -6.564323019911811 0  1 1 0
139 31 17.08091573540237 -1.866361786680045 -6.086323019911802 0  1 1 0
140 28 19.640915735402373 0.13663821331995507 -7.992323019911808 0  1 1 0
141 13 62.161915735402374 19.566638213319962 -64.0393230199118 0  1 1 0
142 16 61.07991573540238 18.438638213319962 -60.6103230199118 0  1 1 0
143 8 58.62991573540236 19.936638213319952 -58.1693230199118 0  1 1 0
144 2 57.41391573540237 18.716638213319953 -54.8183230199118 0  1 1 1
145 8 55.10091573540238 20.29963821331995 -52.298323019911805 0  1 1 0
146 12 53.74291573540238 19.008638213319955 -49.02932301991181 0  1 1 1
147 8 51.57491573540237 20.656638213319965 -46.4243230199118 0  1 1 0
148 8 50.07091573540238 19.311638213319952 -43.2423230199118 0  1 1 0
149 12 48.05091573540237 21.004638213319964 -40.548323019911805 0  1 1 1
150 8 46.39491573540238 19.62263821331996 -37.457323019911804 0  1 1 0
151 11 44.52691573540237 21.339638213319958 -34.6723230199118 0  1 1 0
152 8 42.71991573540238 19.942638213319952 -31.674323019911803 0  1 1 0
153 12 41.00391573540237 21.66163821331996 -28.7943230199118 0  1 1 1
154 8 39.04391573540238 20.269638213319965 -25.891323019911802 0  1 1 0
155 8 37.47791573540238 21.971638213319963 -22.917323019911805 0  1 1 0
156 1 35.36891573540238 20.606638213319954 -20.1093230199118 0  1 1 0
157 12 33.94991573540237 22.273638213319956 -17.0413230199118 0  1 1 1
158 2 31.691915735402375 20.954638213319953 -14.327323019911802 0  1 1 1
159 9 30.41591573540238 22.566638213319962 -11.16832301991181 0  1 1 0.5
160 2 28.018915735402373 21.318638213319957 -8.54332301991181 0  1 1 1
161 12 26.881915735402373 22.85763821331996 -5.29632301991181 0  1 1 1
162 20 24.351915735402372 21.694638213319962 -2.756323019911804 0  1 1 0
163 11 23.340915735402376 23.14063821331996 0.5736769800881945 0  1 1 0
164 4 21.28591573540237 23.145638213319955 3.4896769800881913 0  1 1 -1
165 3 18.024915735402374 23.388638213319965 1.5536769800881984 0  1 1 0
166 10 17.078915735402376 19.74463821331996 2.0746769800881992 0  1 1 0
167 6 17.685915735402375 20.35763821331996 5.784676980088193 0  1 1 0
168 8 15.598915735402372 23.493638213319954 5.293676980088193 0  1 1 0
169 10 12.263915735402378 21.835638213319953 4.687676980088199 0  1 1 0
170 17 11.340915735402376 22.186638213319952 8.290676980088193 0  1 1 0
171 12 10.876915735402378 19.56063821331996 11.000676980088201 0  1 1 1
172 15 7.398915735402369 20.688638213319962 12.167676980088203 0  1 1 0
173 21 6.371915735402382 20.511638213319955 8.504676980088192 0  1 1 0
174 30 7.31291573540237 16.828638213319962 8.655676980088202 0  1 1 0
175 22 5.335915735402381 16.311638213319952 11.799676980088194 0  1 1 1
176 22 2.3199157354023754 18.202638213319958 10.421676980088193 0  1 1 1
177 31 2.5079157354023778 15.838638213319953 7.413676980088198 0  1 1 0
178 21 2.5329157354023693 12.989638213319964 9.889676980088197 0  1 1 0
179 22 -0.3370842645976211 14.238638213319959 12.041676980088198 0  1 1 1
180 22 -2.479084264597617 14.444638213319962 8.927676980088194 0  1 1 1
181 28 -2.0890842645976306 10.695638213319953 8.4646769800882 0  1 1 0
182 28 -3.091084264597626 9.988638213319959 12.047676980088198 0  1 1 0
183 40 0.1429157354023829 9.25663821331996 13.894676980088192 0  1 1 0
184 32 0.33791573540237607 9.535638213319956 17.656676980088193 0  1 1 1
185 22 4.075915735402376 9.550638213319957 18.3816769800882 0  1 1 1
186 30 6.860915735402372 10.632638213319964 16.06067698008819 0  1 1 0
187 36 10.281915735402379 9.219638213319953 16.797676980088198 0  1 1 0
188 28 13.139915735402383 11.659638213319965 16.585676980088195 0  1 1 0
189 31 15.022915735402378 9.645638213319955 13.96567698008819 0  1 1 0
190 30 12.197915735402376 9.639638213319955 11.371676980088196 0  1 1 0
191 39 13.200915735402376 13.029638213319956 10.012676980088202 0  1 1 0
192 27 16.343915735402376 12.00663821331996 8.138676980088192 0  1 1 -1
193 27 14.664915735402374 8.984638213319954 6.582676980088195 0  1 1 -1
194 37 11.67291573540237 11.00963821331996 5.471676980088191 0  1 1 0
195 22 13.971915735402376 13.588638213319953 3.8906769800882017 0  1 1 1
196 28 15.635915735402378 10.65563821331996 2.142676980088197 0  1 1 0
197 40 12.343915735402376 9.37563821331996 0.7596769800882015 0  1 1 0
198 31 11.251915735402378 12.888638213319965 -0.2793230199118 0  1 1 0
199 32 14.526915735402369 13.464638213319958 -2.138323019911809 0  1 1 1
200 40 14.182915735402375 10.092638213319958 -3.9123230199118098 0  1 1 0
201 34 10.603915735402381 10.880638213319955 -4.986323019911808 0  1 1 0
202 31 11.605915735402377 14.273638213319956 -6.332323019911797 0  1 1 0
203 27 14.57391573540238 12.828638213319962 -8.234323019911798 0  1 1 -1
204 23 12.221915735402376 10.409638213319965 -10.0143230199118 0  1 1 0
205 40 9.479915735402372 12.852638213319963 -10.949323019911802 0  1 1 0
206 30 11.90791573540237 15.62863821331996 -11.876323019911808 0  1 1 0
207 22 13.885915735402378 13.27163821331996 -14.1423230199118 0  1 1 1
208 24 10.67791573540238 12.403638213319965 -15.993323019911799 0  1 1 -1
209 21 9.420915735402374 16.01563821331996 -16.155323019911805 0  1 1 0
210 40 12.839915735402371 17.278638213319965 -17.292323019911805 0  1 1 0
211 37 13.031915735402379 14.669638213319956 -20.04332301991181 0  1 1 0
212 39 9.517915735402383 15.557638213319962 -21.292323019911805 0  1 1 0
213 37 10.105915735402377 19.30463821331996 -21.333323019911802 0  1 1 0
214 27 13.527915735402374 18.89063821331996 -22.899323019911805 0  1 1 -1
215 29 12.155915735402374 16.653638213319965 -25.630323019911806 0  1 1 0.5
216 21 9.510915735402378 19.252638213319955 -26.411323019911805 0  1 1 0
217 32 12.281915735402379 21.92063821331996 -26.704323019911804 0  1 1 1
218 22 10.620915735402377 24.097638213319954 -24.103323019911805 0  1 1 1
219 32 12.93691573540238 25.574638213319957 -21.473323019911803 0  1 1 1
220 37 10.08591573540238 26.434638213319957 -19.067323019911797 0  1 1 0
221 40 8.82191573540237 23.323638213319953 -17.327323019911802 0  1 1 0
222 37 5.043915735402379 23.463638213319953 -17.664323019911805 0  1 1 0
223 21 2.5999157354023765 21.891638213319965 -15.201323019911797 0  1 1 0
224 33 0.9949157354023725 19.56063821331996 -17.724323019911807 0  1 1 0
225 24 4.252915735402382 17.684638213319957 -18.24832301991181 0  1 1 -1
226 40 4.642915735402383 17.16263821331995 -14.479323019911803 0  1 1 0
227 40 1.1159157354023819 15.736638213319964 -14.6363230199118 0  1 1 0
228 39 2.2419157354023724 13.51263821331996 -17.53732301991181 0  1 1 0
229 21 5.232915735402372 12.38763821331996 -15.469323019911798 0  1 1 0
230 31 2.9579157354023806 11.431638213319957 -12.591323019911798 0  1 1 0
231 32 0.4699157354023811 9.812638213319957 -14.982323019911803 0  1 1 1
232 22 3.2699157354023782 7.6926382133199525 -16.41232301991181 0  1 1 1
233 26 4.68491573540237 6.122638213319959 -13.252323019911799 0  1 1 0
234 28 1.1839157354023797 5.6086382133199635 -11.890323019911804 0  1 1 0
235 22 0.19391573540237061 8.097638213319954 -9.225323019911798 0  1 1 1
236 37 -1.8730842645976225 10.308638213319952 -11.5383230199118 0  1 1 0
237 31 -2.9680842645976213 13.809638213319957 -10.587323019911807 0  1 1 0
238 39 -6.331084264597621 15.460638213319953 -11.255323019911799 0  1 1 0
239 28 -6.790084264597624 19.151638213319956 -11.812323019911801 0  1 1 0
240 34 -4.19308426459763 20.386638213319955 -14.2793230199118 0  1 1 0
241 28 -5.375084264597618 19.13163821331996 -17.65632301991181 0  1 1 0
242 28 -4.739084264597622 15.403638213319965 -17.329323019911797 0  1 1 0
243 16 3.9949157354023725 -61.42636178668004 -32.692323019911804 0  1 1 0
244 8 5.8429157354023715 -59.38636178668004 -35.26732301991181 0  1 1 0
245 2 6.3769157354023775 -55.66936178668004 -35.5653230199118 0  1 1 1
246 8 8.372915735402373 -53.64436178668004 -38.039323019911805 0  1 1 0
247 12 8.766915735402378 -49.91936178668004 -38.4463230199118 0  1 1 1
248 6 10.899915735402374 -47.89836178668004 -40.8053230199118 0  1 1 0
249 8 11.164915735402374 -44.17636178668004 -41.3363230199118 0  1 1 0
250 8 13.423915735402375 -42.147361786680044 -43.567323019911804 0  1 1 0
251 12 13.57091573540238 -38.44136178668004 -44.2323230199118 0  1 1 1
252 17 15.94291573540238 -36.39236178668004 -46.323323019911804 0  1 1 0
253 2 15.987915735402382 -32.71236178668004 -47.1323230199118 0  1 1 1
254 1 18.459915735402376 -30.635361786680043 -49.07532301991181 0  1 1 0
255 12 18.41891573540238 -26.991361786680045 -50.0343230199118 0  1 1 1
256 1 20.188915735402375 -23.873361786680043 -50.1963230199118 0  1 1 0
257 12 17.512915735402373 -21.345361786680044 -51.112323019911805 0  1 1 1
258 17 17.66991573540237 -19.364361786680035 -47.887323019911804 0  1 1 0
259 2 20.740915735402382 -17.661361786680047 -46.469323019911805 0  1 1 1
260 36 19.94591573540238 -18.373361786680036 -42.7933230199118 0  1 1 0
261 36 20.18191573540237 -22.10936178668004 -43.4133230199118 0  1 1 0
262 22 23.21491573540237 -21.45436178668004 -45.58132301991181 0  1 1 1
263 21 25.262915735402373 -19.94736178668004 -42.753323019911804 0  1 1 0
264 28 24.72391573540237 -22.687361786680043 -40.1723230199118 0  1 1 0
265 31 22.44991573540237 -20.52636178668004 -38.033323019911805 0  1 1 0
266 26 18.80991573540237 -20.724361786680042 -37.0583230199118 0  1 1 0
267 34 18.027915735402374 -17.033361786680047 -36.819323019911806 0  1 1 0
268 35 16.507915735402378 -15.056361786680043 -39.7113230199118 0  1 1 0
269 40 19.53891573540237 -13.215361786680035 -41.0773230199118 0  1 1 0
270 28 17.244915735402373 -11.857361786680045 -43.8003230199118 0  1 1 0
271 22 15.110915735402372 -9.867361786680036 -41.4193230199118 0  1 1 1
272 40 18.000915735402373 -8.60636178668004 -39.33732301991181 0  1 1 0
273 29 19.34491573540238 -7.316361786680048 -42.6603230199118 0  1 1 0.5
274 22 15.92291573540237 -5.709361786680049 -43.1693230199118 0  1 1 1
275 31 16.01991573540238 -4.165361786680037 -39.698323019911804 0  1 1 0
276 31 19.54991573540238 -2.836361786680044 -40.173323019911805 0  1 1 0
277 22 18.426915735402375 -1.1813617866800428 -43.386323019911806 0  1 1 1
278 32 14.976915735402372 0.12663821331996417 -42.3603230199118 0  1 1 1
279 28 16.111915735402377 1.0816382133199625 -38.8663230199118 0  1 1 0
280 23 18.31791573540238 4.064638213319952 -39.877323019911806 0  1 1 0
281 39 21.632915735402378 2.8216382133199573 -38.4833230199118 0  1 1 0
282 21 23.80991573540237 3.197638213319962 -41.560323019911806 0  1 1 0
283 27 23.240915735402382 3.590638213319963 -45.268323019911804 0  1 1 -1
284 22 25.257915735402378 0.6926382133199525 -46.6633230199118 0  1 1 1
285 40 25.060915735402375 -2.5513617866800473 -44.670323019911805 0  1 1 0
286 28 27.44891573540238 -5.1483617866800415 -46.02932301991181 0  1 1 0
287 21 26.29791573540237 -8.741361786680045 -46.2143230199118 0  1 1 0
288 28 28.694915735402375 -10.011361786680041 -43.6053230199118 0  1 1 0
289 21 27.243915735402382 -7.815361786680043 -40.90432301991181 0  1 1 0
290 35 23.706915735402376 -9.233361786680035 -40.439323019911804 0  1 1 0
291 40 24.95191573540238 -12.824361786680043 -40.6413230199118 0  1 1 0
292 39 27.498915735402377 -11.946361786680043 -37.9553230199118 0  1 1 0
293 31 24.82091573540238 -10.23736178668004 -35.884323019911804 0  1 1 0
294 21 22.33391573540237 -13.058361786680038 -35.9613230199118 0  1 1 0
295 21 25.194915735402375 -15.436361786680038 -35.1723230199118 0  1 1 0
296 40 25.93991573540238 -13.575361786680048 -31.954323019911804 0  1 1 0
297 31 22.203915735402376 -13.444361786680048 -31.145323019911807 0  1 1 0
298 27 21.79991573540238 -17.190361786680043 -31.670323019911805 0  1 1 -1
299 39 24.747915735402373 -17.76736178668004 -29.348323019911803 0  1 1 0
300 31 23.29991573540238 -15.528361786680037 -26.6113230199118 0  1 1 0
301 37 19.893915735402373 -17.22836178668004 -26.831323019911807 0  1 1 0
302 21 21.60691573540238 -20.632361786680043 -26.700323019911806 0  1 1 0
303 27 23.55091573540237 -19.687361786680043 -23.5653230199118 0  1 1 -1
304 30 20.664915735402374 -18.162361786680037 -21.585323019911804 0  1 1 0
305 31 18.48791573540238 -21.141361786680044 -22.5563230199118 0  1 1 0
306 27 21.111915735402377 -23.70136178668004 -21.534323019911803 0  1 1 -1
307 31 21.23791573540238 -22.06636178668004 -18.1123230199118 0  1 1 0
308 21 17.45491573540238 -21.79836178668004 -17.76932301991181 0  1 1 0
309 28 17.124915735402382 -25.397361786680044 -18.91232301991181 0  1 1 0
310 23 19.45291573540237 -26.872361786680038 -16.337323019911807 0  1 1 0
311 21 17.69091573540237 -24.85036178668004 -13.6363230199118 0  1 1 0
312 21 14.380915735402382 -26.21336178668004 -14.977323019911807 0  1 1 0
313 22 15.623915735402377 -29.77336178668004 -14.68932301991181 0  1 1 1
314 24 16.83891573540238 -28.89036178668004 -11.197323019911806 0  1 1 -1
315 23 13.44691573540237 -27.79236178668004 -9.834323019911807 0  1 1 0
316 32 11.745915735402377 -31.00636178668004 -11.185323019911806 0  1 1 1
317 32 9.741915735402372 -29.28336178668004 -13.934323019911801 0  1 1 1
318 37 9.605915735402377 -29.290361786680045 -17.732323019911803 0  1 1 0
319 22 8.886915735402383 -25.70436178668004 -18.724323019911807 0  1 1 1
320 30 10.898915735402369 -22.525361786680044 -18.62332301991181 0  1 1 0
321 30 8.763915735402378 -20.001361786680043 -16.747323019911803 0  1 1 0
322 35 10.155915735402374 -16.47236178668004 -16.00432301991181 0  1 1 0
323 22 11.545915735402374 -17.304361786680047 -12.539323019911805 0  1 1 1
324 29 13.986915735402377 -19.73136178668004 -14.14732301991181 0  1 1 0.5
325 31 15.069915735402375 -16.86236178668004 -16.3803230199118 0  1 1 0
326 26 15.825915735402376 -14.654361786680042 -13.363323019911803 0  1 1 0
327 31 17.700915735402376 -17.45136178668004 -11.614323019911808 0  1 1 0
328 21 19.68391573540238 -18.218361786680035 -14.774323019911805 0  1 1 0
329 40 20.679915735402375 -14.631361786680046 -15.477323019911807 0  1 1 0
330 22 21.52391573540237 -13.97236178668004 -11.829323019911797 0  1 1 1
331 23 23.18691573540238 -17.22236178668004 -10.691323019911806 0  1 1 0
332 24 25.89891573540237 -16.64836178668004 -13.307323019911806 0  1 1 -1
333 27 28.270915735402383 -13.715361786680035 -13.496323019911799 0  1 1 -1
334 27 28.976915735402372 -12.645361786680041 -17.085323019911797 0  1 1 -1
335 31 25.255915735402382 -12.59736178668004 -17.90032301991181 0  1 1 0
336 23 24.762915735402373 -10.584361786680049 -14.723323019911803 0  1 1 0
337 32 27.316915735402375 -8.09436178668004 -16.018323019911804 0  1 1 1
338 31 25.46991573540238 -7.927361786680038 -19.335323019911797 0  1 1 0
339 31 21.91891573540238 -7.602361786680035 -17.92432301991181 0  1 1 0
340 28 22.865915735402382 -5.681361786680043 -14.801323019911806 0  1 1 0
341 22 20.021915735402374 -3.1683617866800375 -14.729323019911803 0  1 1 1
342 40 16.828915735402376 -4.698361786680039 -16.218323019911807 0  1 1 0
343 37 13.726915735402372 -5.962361786680049 -14.4223230199118 0  1 1 0
344 30 12.519915735402378 -9.370361786680036 -15.572323019911806 0  1 1 0
345 21 8.741915735402372 -9.639361786680041 -15.342323019911802 0  1 1 0
346 26 7.155915735402374 -11.982361786680045 -12.763323019911809 0  1 1 0
347 28 10.587915735402376 -13.024361786680046 -11.578323019911807 0  1 1 0
348 28 10.94391573540237 -12.415361786680037 -7.873323019911808 0  1 1 0
349 40 14.42291573540237 -12.24636178668004 -6.330323019911802 0  1 1 0
350 31 17.16291573540238 -14.782361786680042 -5.716323019911798 0  1 1 0
351 35 17.246915735402382 -16.22236178668004 -2.184323019911801 0  1 1 0
352 23 19.566915735402375 -14.042361786680047 -0.0943230199117977 0  1 1 0
353 30 19.79391573540238 -13.628361786680045 3.673676980088203 0  1 1 0
354 26 22.757915735402378 -11.704361786680039 5.044676980088198 0  1 1 0
355 36 25.137915735402373 -13.090361786680035 7.6476769800881925 0  1 1 0
356 40 24.68391573540238 -10.703361786680048 10.603676980088196 0  1 1 0
357 31 20.91691573540237 -11.314361786680038 10.510676980088192 0  1 1 0
358 11 21.141915735402378 -15.045361786680047 11.169676980088198 0  1 1 0
359 15 21.078915735402376 -16.122361786680045 14.879676980088192 0  1 1 0
360 12 23.988915735402372 -18.250361786680045 16.070676980088194 0  1 1 1
361 12 24.730915735402377 -19.79536178668004 19.427676980088194 0  1 1 1
362 17 28.02591573540238 -18.634361786680046 20.84067698008819 0  1 1 0
363 7 29.76991573540238 -19.47536178668004 24.07267698008819 0  1 1 -1
364 16 33.14391573540237 -18.455361786680044 25.404676980088198 0  1 1 0
365 16 34.813915735402375 -19.149361786680046 28.710676980088195 0  1 1 0
366 12 38.25691573540237 -18.282361786680042 29.97767698008819 0  1 1 1
367 16 39.86491573540238 -18.816361786680048 33.34367698008819 0  1 1 0
368 1 43.36191573540238 -18.110361786680045 34.5576769800882 0  1 1 0
369 12 44.92191573540238 -18.480361786680035 37.96867698008819 0  1 1 1
370 16 48.462915735402376 -17.947361786680048 39.1426769800882 0  1 1 0
371 12 49.98691573540238 -18.14536178668004 42.58467698008819 0  1 1 1
372 15 53.36491573540238 -43.84736178668004 -115.1673230199118 0  1 1 0
373 7 52.057915735402375 -43.89936178668004 -111.5983230199118 0  1 1 -1
374 15 52.51191573540238 -46.40236178668004 -108.7903230199118 0  1 1 0
375 1 49.24391573540238 -47.82136178668004 -107.4673230199118 0  1 1 0
376 12 48.54691573540238 -50.25536178668004 -104.6763230199118 0  1 1 1
377 16 45.29691573540238 -51.513361786680036 -103.24232301991181 0  1 1 0
378 1 44.59791573540238 -54.07936178668004 -100.5713230199118 0  1 1 0
379 15 41.34891573540237 -55.29436178668004 -99.0453230199118 0  1 1 0
380 1 41.15991573540238 -54.81736178668004 -95.2793230199118 0  1 1 0
381 15 38.521915735402374 -55.81236178668004 -92.74832301991181 0  1 1 0
382 12 37.11091573540237 -52.88036178668004 -90.78132301991181 0  1 1 1
383 12 34.563915735402375 -52.75136178668004 -88.0053230199118 0  1 1 1
384 8 33.30691573540237 -49.86836178668004 -85.93032301991181 0  1 1 0
385 16 30.635915735402378 -49.705361786680044 -83.27832301991181 0  1 1 0
386 12 29.498915735402377 -46.863361786680045 -81.0783230199118 0  1 1 1
387 12 26.709915735402376 -46.64836178668004 -78.55232301991181 0  1 1 1
388 1 25.685915735402375 -43.86736178668004 -76.22432301991181 0  1 1 0
389 20 22.79391573540238 -43.58536178668004 -73.8253230199118 0  1 1 0
390 17 21.868915735402382 -40.88136178668004 -71.3693230199118 0  1 1 0
391 12 18.885915735402378 -40.51236178668004 -69.09632301991181 0  1 1 1
392 17 18.04991573540238 -37.90136178668004 -66.5123230199118 0  1 1 0
393 6 14.990915735402382 -37.43136178668004 -64.36432301991181 0  1 1 0
394 12 14.224915735402377 -34.92636178668004 -61.6533230199118 0  1 1 1
395 12 11.098915735402372 -34.34436178668004 -59.6303230199118 0  1 1 1
396 4 10.389915735402383 -31.96036178668004 -56.798323019911805 0  1 1 -1
397 8 7.2179157354023715 -31.251361786680043 -54.89132301991181 0  1 1 0
398 12 6.549915735402379 -28.998361786680043 -51.945323019911804 0  1 1 1
399 12 3.3459157354023716 -28.15236178668004 -50.1503230199118 0  1 1 1
400 2 2.7009157354023756 -26.04236178668004 -47.0953230199118 0  1 1 1
401 2 -0.5180842645976185 -25.05136178668004 -45.405323019911805 0  1 1 1
402 12 -1.32108426459763 -23.24336178668004 -42.15432301991181 0  1 1 1
403 36 1.3799157354023777 -20.845361786680044 -40.8303230199118 0  1 1 0
404 22 5.109915735402382 -21.00836178668004 -40.186323019911804 0  1 1 1
405 32 5.917915735402374 -20.11536178668004 -36.5683230199118 0  1 1 1
406 27 9.18991573540238 -18.652361786680046 -35.317323019911804 0  1 1 -1
407 36 10.583915735402371 -20.574361786680043 -32.359323019911805 0  1 1 0
408 39 13.94391573540237 -21.120361786680043 -30.691323019911806 0  1 1 0
409 21 13.45491573540238 -24.82536178668004 -29.994323019911803 0  1 1 0
410 30 16.08291573540238 -26.14636178668004 -32.414323019911805 0  1 1 0
411 39 18.756915735402373 -23.726361786680044 -31.1963230199118 0  1 1 0