#LAMMPS data file

1619 atoms
211 ellipsoids
4520 bonds
0 angles
0 dihedrals
0 impropers

42 atom types
3217 bond types
0 angle types

-209.4226051652018 209.4226051652018 xlo xhi
-209.4226051652018 209.4226051652018 ylo yhi
-209.4226051652018 209.4226051652018 zlo zhi

Atoms

1 13 -25.713170957201484 7.517556780991015 22.650959265702028 0  1 1 0
2 1 -25.273170957201486 10.526556780991001 20.280959265702023 0  1 1 0
3 2 -26.683170957201483 13.477556780990994 22.370959265702027 0  1 1 1
4 17 -29.883170957201486 14.887556780990991 21.030959265702023 0  1 1 0
5 12 -29.923170957201492 18.436556780990998 19.660959265702047 0  1 1 1
6 6 -31.633170957201486 21.50655678099099 21.150959265702028 0  1 1 0
7 17 -34.16317095720149 23.366556780991004 18.99095926570203 0  1 1 0
8 1 -33.75317095720149 27.157556780991 18.570959265702044 0  1 1 0
9 2 -33.40317095720148 28.776556780991 22.070959265702044 0  1 1 1
10 12 -34.51317095720148 32.277556780991006 20.70095926570204 0  1 1 1
11 16 -33.023170957201486 34.406556780991 23.580959265702035 0  1 1 0
12 17 -35.963170957201484 33.80755678099101 25.93095926570203 0  1 1 0
13 8 -35.213170957201484 32.847556780991 29.520959265702032 0  1 1 0
14 8 -31.493170957201485 33.277556780991006 30.20095926570204 0  1 1 0
15 12 -28.373170957201495 32.44755678099099 32.100959265702045 0  1 1 1
16 1 -27.943170957201488 32.75655678099099 35.95095926570204 0  1 1 0
17 15 -25.403170957201482 35.217556780991 37.53095926570202 0  1 1 0
18 2 -21.693170957201488 34.596556780990994 38.17095926570204 0  1 1 1
19 12 -19.50317095720149 34.76655678099101 41.29095926570204 0  1 1 1
20 6 -16.643170957201477 37.336556780991 40.66095926570205 0  1 1 0
21 11 -13.373170957201495 35.92655678099101 39.04095926570204 0  1 1 0
22 1 -11.663170957201487 34.336556780991 42.03095926570202 0  1 1 0
23 17 -8.353170957201485 32.42655678099101 42.330959265702035 0  1 1 0
24 12 -8.603170957201485 29.286556780990992 40.20095926570204 0  1 1 1
25 1 -10.193170957201488 26.096556780990994 41.76095926570204 0  1 1 0
26 1 -7.923170957201478 23.216556780991 42.840959265702026 0  1 1 0
27 2 -7.9931709572014995 19.76655678099101 41.23095926570204 0  1 1 1
28 12 -9.713170957201498 17.356556780991014 43.580959265702035 0  1 1 1
29 16 -7.75317095720149 15.586556780991003 46.310959265702024 0  1 1 0
30 1 -6.393170957201477 11.916556780991016 46.43095926570203 0  1 1 0
31 15 -8.683170957201497 8.986556780991009 47.54095926570204 0  1 1 0
32 1 -9.00317095720149 8.557556780991007 51.360959265702036 0  1 1 0
33 17 -6.893170957201477 5.8965567809910056 53.12095926570203 0  1 1 0
34 8 -9.783170957201492 4.26655678099101 55.01095926570204 0  1 1 0
35 8 -13.033170957201492 4.2575567809909955 56.90095926570203 0  1 1 0
36 20 -15.313170957201493 4.336556780991003 53.600959265702045 0  1 1 0
37 12 -17.043170957201482 2.1765567809910067 50.840959265702026 0  1 1 1
38 12 -15.563170957201493 4.4065567809909965 47.98095926570204 0  1 1 1
39 15 -13.783170957201492 2.306556780991002 45.29095926570204 0  1 1 0
40 9 -10.123170957201495 1.8765567809909953 44.310959265702024 0  1 1 0.5
41 2 -9.163170957201487 3.5465567809910112 40.90095926570203 0  1 1 1
42 19 -10.72317095720149 2.837556780991008 37.43095926570203 0  1 1 0
43 2 -10.263170957201481 -0.5224432190090056 35.53095926570202 0  1 1 1
44 15 -7.603170957201485 -0.473443219008999 32.590959265702026 0  1 1 0
45 8 -8.943170957201488 0.6675567809909921 29.120959265702027 0  1 1 0
46 37 -12.133170957201486 2.4775567809909944 30.330959265702035 0  1 1 0
47 40 -10.7731709572015 6.0075567809909955 30.97095926570202 0  1 1 0
48 21 -8.47317095720149 5.417556780990992 27.93095926570203 0  1 1 0
49 31 -11.463170957201498 6.066556780990993 25.45095926570204 0  1 1 0
50 22 -11.913170957201487 9.546556780991011 26.880959265702046 0  1 1 1
51 27 -8.083170957201474 10.106556780991014 26.71095926570203 0  1 1 -1
52 30 -8.393170957201477 9.247556780991005 22.95095926570204 0  1 1 0
53 22 -11.613170957201476 11.39755678099101 22.69095926570202 0  1 1 1
54 22 -10.113170957201476 14.546556780991011 24.170959265702038 0  1 1 1
55 39 -6.923170957201478 14.206556780991008 22.160959265702047 0  1 1 0
56 26 -9.043170957201482 13.626556780990995 18.96095926570203 0  1 1 0
57 32 -11.193170957201488 16.686556780990998 19.71095926570203 0  1 1 1
58 36 -8.143170957201477 18.746556780991 20.46095926570203 0  1 1 0
59 37 -6.273170957201501 20.156556780990996 17.300959265702033 0  1 1 0
60 27 -3.343170957201494 21.48655678099101 19.540959265702043 0  1 1 -1
61 31 0.4268290427985164 20.466556780991 19.530959265702023 0  1 1 0
62 31 0.9368290427985073 17.286556780990992 21.750959265702022 0  1 1 0
63 30 4.676829042798516 17.496556780991 21.48095926570204 0  1 1 0
64 22 6.24682904279851 20.536556780990992 23.18095926570203 0  1 1 1
65 32 7.196829042798498 23.227556780990994 20.520959265702032 0  1 1 1
66 31 10.576829042798522 24.38755678099099 22.020959265702032 0  1 1 0
67 35 12.456829042798518 20.866556780991004 22.21095926570203 0  1 1 0
68 34 11.076829042798522 20.25655678099099 18.69095926570202 0  1 1 0
69 26 12.946829042798498 23.487556780991014 17.47095926570202 0  1 1 0
70 22 16.126829042798505 22.406556780990996 19.420959265702038 0  1 1 1
71 31 15.796829042798521 18.967556780991004 17.620959265702027 0  1 1 0
72 40 15.49682904279851 20.697556780990993 14.310959265702024 0  1 1 0
73 22 18.456829042798518 23.007556780990996 14.920959265702038 0  1 1 1
74 27 20.686829042798507 20.126556780990995 16.280959265702023 0  1 1 -1
75 30 19.916829042798526 18.007556780990996 13.160959265702047 0  1 1 0
76 21 20.356829042798523 20.936556780990998 10.790959265702043 0  1 1 0
77 26 23.676829042798516 22.307556780991007 12.160959265702047 0  1 1 0
78 24 25.666829042798526 19.307556780991007 10.650959265702028 0  1 1 -1
79 34 24.376829042798505 19.947556780990993 7.020959265702032 0  1 1 0
80 32 25.21682904279851 23.697556780990993 7.100959265702045 0  1 1 1
81 37 26.436829042798507 26.776556780991 9.21095926570203 0  1 1 0
82 24 24.416829042798526 29.906556780990996 10.420959265702038 0  1 1 -1
83 31 20.77682904279851 28.917556780990992 9.750959265702022 0  1 1 0
84 22 17.79682904279852 30.956556780991008 10.95095926570204 0  1 1 1
85 34 14.356829042798523 29.447556780990993 11.500959265702022 0  1 1 0
86 26 10.966829042798508 31.346556780990994 11.380959265702046 0  1 1 0
87 36 8.116829042798514 30.666556780991016 13.760959265702041 0  1 1 0
88 36 5.866829042798514 30.007556780990996 10.620959265702027 0  1 1 0
89 21 8.536829042798502 27.456556780991008 9.300959265702033 0  1 1 0
90 40 9.116829042798514 25.51655678099101 12.660959265702047 0  1 1 0
91 33 5.366829042798514 25.456556780991008 13.080959265702035 0  1 1 0
92 21 4.926829042798516 24.01655678099101 9.530959265702023 0  1 1 0
93 31 7.676829042798516 21.386556780991015 10.170959265702038 0  1 1 0
94 26 5.7568290427985005 20.246556780991 13.250959265702022 0  1 1 0
95 27 2.1768290427985164 20.57755678099099 11.430959265702029 0  1 1 -1
96 21 3.7068290427985175 17.966556780991 9.040959265702043 0  1 1 0
97 25 5.51682904279852 15.51655678099101 11.48095926570204 0  1 1 0
98 27 2.7068290427985175 15.26655678099101 14.100959265702045 0  1 1 -1
99 21 0.0768290427985221 14.587556780991008 11.340959265702026 0  1 1 0
100 39 2.336829042798513 12.066556780990993 9.590959265702026 0  1 1 0
101 31 2.946829042798498 10.186556780990998 12.890959265702037 0  1 1 0
102 40 -0.7631709572014813 10.156556780990996 13.94095926570202 0  1 1 0
103 28 -1.373170957201495 8.926556780991007 10.320959265702044 0  1 1 0
104 31 1.3668290427985141 6.246556780991 10.860959265702036 0  1 1 0
105 34 -0.10317095720148473 4.966556780990999 14.290959265702043 0  1 1 0
106 27 -3.5231709572015006 4.51655678099101 12.560959265702024 0  1 1 -1
107 24 -2.0131709572014813 1.9065567809909965 10.020959265702032 0  1 1 -1
108 37 -0.05317095720150178 0.49655678099099987 12.98095926570204 0  1 1 0
109 23 -3.3931709572014768 -0.03244321900899649 14.790959265702043 0  1 1 0
110 31 -4.643170957201477 -1.8434432190090035 11.610959265702036 0  1 1 0
111 25 -1.3531709572014847 -4.073443219008993 11.870959265702027 0  1 1 0
112 21 -2.2431709572014995 -5.052443219009007 15.490959265702031 0  1 1 0
113 30 -5.903170957201496 -5.73344321900899 14.71095926570203 0  1 1 0
114 29 -4.773170957201501 -8.213443219009008 12.010959265702041 0  1 1 0.5
115 21 -2.453170957201479 -9.912443219008992 14.620959265702027 0  1 1 0
116 32 -5.813170957201493 -10.203443219008989 16.640959265702037 0  1 1 1
117 22 -4.3331709572014745 -7.612443219009009 19.090959265702026 0  1 1 1
118 40 -5.2431709572014995 -4.202443219008984 20.500959265702022 0  1 1 0
119 37 -1.7431709572014995 -3.5224432190090056 21.850959265702045 0  1 1 0
120 30 0.6868290427985073 -1.8324432190090079 19.380959265702046 0  1 1 0
121 33 4.336829042798513 -3.1034432190089944 19.350959265702045 0  1 1 0
122 35 7.596829042798504 -2.1034432190089944 17.170959265702038 0  1 1 0
123 32 6.676829042798516 -4.903443219009006 14.560959265702024 0  1 1 1
124 24 3.4968290427985096 -2.763443219008991 13.660959265702047 0  1 1 -1
125 30 5.646829042798515 0.3565567809910135 13.020959265702032 0  1 1 0
126 26 7.99682904279851 -1.763443219008991 10.870959265702027 0  1 1 0
127 31 5.076829042798522 -3.632443219008991 9.110959265702036 0  1 1 0
128 21 3.196829042798498 -0.34344321900900354 8.430959265702029 0  1 1 0
129 22 6.4168290427985255 1.0775567809909887 6.8409592657020255 0  1 1 1
130 22 7.336829042798513 -2.3434432190090035 4.930959265702029 0  1 1 1
131 30 3.846829042798504 -2.463443219009008 3.3309592657020346 0  1 1 0
132 22 3.9968290427985096 1.1565567809909965 2.130959265702046 0  1 1 1
133 28 7.556829042798512 0.5275567809910058 0.5809592657020346 0  1 1 0
134 27 9.366829042798514 2.9775567809909944 2.990959265702031 0  1 1 -1
135 22 13.186829042798507 2.6975567809909933 3.0509592657020335 0  1 1 1
136 21 14.296829042798521 0.2865567809909919 5.720959265702021 0  1 1 0
137 13 19.686829042798507 45.906556780991 31.97095926570202 0  1 1 0
138 16 16.636829042798524 44.686556780991 33.91095926570205 0  1 1 0
139 8 14.076829042798522 42.636556780991015 31.880959265702046 0  1 1 0
140 2 10.316829042798503 42.58755678099101 31.610959265702036 0  1 1 1
141 8 10.176829042798516 46.297556780991016 31.630959265702046 0  1 1 0
142 12 12.406829042798506 46.556556780991 34.78095926570202 0  1 1 1
143 8 10.166829042798526 44.126556780990995 36.810959265702024 0  1 1 0
144 8 7.886829042798524 45.556556780991 39.610959265702036 0  1 1 0
145 12 5.4168290427985255 42.626556780990995 40.48095926570204 0  1 1 1
146 8 7.9668290427985085 40.25655678099099 41.98095926570204 0  1 1 0
147 11 8.466829042798508 36.376556780990995 42.330959265702035 0  1 1 0
148 8 5.576829042798522 34.056556780991 43.62095926570203 0  1 1 0
149 12 5.186829042798507 31.057556780991007 46.04095926570204 0  1 1 1
150 8 5.586829042798513 28.436556780990998 43.17095926570204 0  1 1 0
151 8 9.356829042798523 29.186556780990998 42.78095926570202 0  1 1 0
152 1 11.356829042798523 30.35755678099099 39.71095926570203 0  1 1 0
153 12 12.606829042798523 27.86755678099101 37.00095926570202 0  1 1 1
154 2 14.576829042798522 24.966556780991 38.570959265702044 0  1 1 1
155 9 18.316829042798503 24.17755678099101 37.80095926570203 0  1 1 0.5
156 2 20.46682904279851 20.966556780991 37.570959265702044 0  1 1 1
157 12 23.76682904279852 19.797556780991016 35.93095926570203 0  1 1 1
158 20 22.316829042798503 16.67755678099101 34.080959265702035 0  1 1 0
159 31 20.616829042798514 17.227556780990994 30.610959265702036 0  1 1 0
160 22 19.086829042798513 14.716556780990999 28.050959265702033 0  1 1 1
161 24 19.446829042798498 14.706556780991008 24.18095926570203 0  1 1 -1
162 23 17.126829042798505 17.027556780991006 22.26095926570204 0  1 1 0
163 30 15.576829042798522 13.967556780991004 20.48095926570204 0  1 1 0
164 26 14.906829042798506 12.496556780991 24.000959265702022 0  1 1 0
165 28 13.27682904279851 15.926556780991007 24.820959265702044 0  1 1 0
166 30 10.536829042798502 14.527556780991006 22.51095926570204 0  1 1 0
167 37 9.086829042798513 12.736556780991009 25.640959265702037 0  1 1 0
168 32 7.226829042798499 9.546556780991011 26.340959265702026 0  1 1 1
169 35 3.846829042798504 11.356556780991014 27.23095926570204 0  1 1 0
170 21 3.846829042798504 13.376556780990995 23.98095926570204 0  1 1 0
171 30 4.486829042798519 10.197556780990993 21.99095926570203 0  1 1 0
172 22 1.5668290427985028 8.667556780990992 24.020959265702032 0  1 1 1
173 22 -0.7531709572014904 11.727556780990994 23.270959265702032 0  1 1 1
174 31 0.0968290427985039 11.376556780990995 19.520959265702032 0  1 1 0
175 21 -0.8631709572014756 7.7175567809910035 19.640959265702037 0  1 1 0
176 22 -4.213170957201498 8.557556780991007 21.650959265702028 0  1 1 1
177 22 -5.153170957201496 11.197556780990993 18.93095926570203 0  1 1 1
178 28 -4.453170957201479 8.296556780991011 16.390959265702037 0  1 1 0
179 28 -7.133170957201486 6.51655678099101 18.580959265702035 0  1 1 0
180 40 -4.7931709572014825 3.7575567809909955 19.920959265702038 0  1 1 0
181 32 -6.48317095720148 1.9065567809909965 22.870959265702027 0  1 1 1
182 22 -3.2131709572014984 0.14655678099100555 24.050959265702033 0  1 1 1
183 30 0.586829042798513 0.887556780990991 23.790959265702043 0  1 1 0
184 36 3.846829042798504 -1.2724432190090056 24.140959265702037 0  1 1 0
185 28 6.576829042798522 0.40655678099099646 26.21095926570203 0  1 1 0
186 31 8.946829042798498 -0.4424432190089931 23.23095926570204 0  1 1 0
187 30 7.066829042798503 2.137556780990991 20.97095926570202 0  1 1 0
188 39 8.836829042798513 5.35755678099099 22.360959265702036 0  1 1 0
189 27 12.446829042798498 4.417556780990992 21.51095926570204 0  1 1 -1
190 27 10.99682904279851 2.7475567809910046 18.21095926570203 0  1 1 -1
191 37 9.096829042798504 6.206556780991008 17.49095926570203 0  1 1 0
192 22 12.196829042798498 8.547556780991016 18.060959265702024 0  1 1 1
193 28 14.01682904279852 6.7575567809909955 15.120959265702027 0  1 1 0
194 40 11.26682904279852 6.977556780990994 12.44095926570202 0  1 1 0
195 31 10.896829042798515 10.676556780991007 13.740959265702031 0  1 1 0
196 32 14.716829042798508 11.477556780990994 13.300959265702033 0  1 1 1
197 40 14.886829042798524 9.777556780991006 9.820959265702044 0  1 1 0
198 34 11.786829042798502 11.656556780990996 8.48095926570204 0  1 1 0
199 31 12.9768290427985 15.167556780990992 9.69095926570202 0  1 1 0
200 27 16.596829042798504 14.497556780991005 8.73095926570204 0  1 1 -1
201 23 15.436829042798507 14.01655678099101 5.120959265702027 0  1 1 0
202 40 12.876829042798505 17.007556780990996 5.060959265702024 0  1 1 0
203 30 15.686829042798507 19.466556780991 6.3009592657020335 0  1 1 0
204 22 18.426829042798516 18.186556780990998 3.900959265702028 0  1 1 1
205 24 16.46682904279851 19.11755678099101 0.8609592657020357 0  1 1 -1
206 21 14.826829042798522 22.26655678099101 2.390959265702037 0  1 1 0
207 40 18.386829042798524 23.586556780991003 2.990959265702031 0  1 1 0
208 37 19.24682904279851 22.847556780991 -0.7490407342979779 0  1 1 0
209 39 15.99682904279851 24.836556780991003 -1.4890407342979586 0  1 1 0
210 37 17.186829042798507 27.596556780990994 1.0109592657020414 0  1 1 0
211 27 20.576829042798522 27.917556780990992 -0.8590407342979631 0  1 1 -1
212 29 18.676829042798516 27.837556780991008 -4.209040734297957 0  1 1 0.5
213 21 17.26682904279852 31.187556780991002 -2.9890407342979586 0  1 1 0
214 32 20.676829042798516 32.507556780990996 -1.779040734297979 0  1 1 1
215 22 19.106829042798523 32.406556780991 1.8509592657020448 0  1 1 1
216 32 20.096829042798504 31.086556780991003 5.180959265702029 0  1 1 1
217 37 16.49682904279851 31.496556780991 6.520959265702032 0  1 1 0
218 40 14.376829042798505 28.306556780991002 6.3409592657020255 0  1 1 0
219 37 10.906829042798506 29.447556780990993 5.430959265702029 0  1 1 0
220 21 7.596829042798504 27.447556780990993 5.370959265702027 0  1 1 0
221 33 7.876829042798505 27.566556780990993 1.5709592657020437 0  1 1 0
222 24 11.106829042798523 25.337556780991008 1.7709592657020323 0  1 1 -1
223 40 9.236829042798519 22.977556780990994 4.110959265702036 0  1 1 0
224 40 6.306829042798512 22.86755678099101 1.5709592657020437 0  1 1 0
225 39 8.956829042798518 22.307556780991007 -1.2090407342979574 0  1 1 0
226 21 10.7268290427985 19.48655678099101 0.720959265702021 0  1 1 0
227 31 7.596829042798504 17.596556780990994 1.7609592657020414 0  1 1 0
228 32 6.326829042798522 17.847556780991 -1.8890407342979643 0  1 1 1
229 22 9.7268290427985 16.686556780990998 -3.2690407342979597 0  1 1 1
230 26 9.586829042798513 13.716556780990999 -0.7690407342979597 0  1 1 0
231 28 5.906829042798506 12.847556780990999 -1.839040734297953 0  1 1 0
232 22 4.26682904279852 13.596556780990994 1.6109592657020357 0  1 1 1
233 37 2.596829042798504 16.846556780990994 0.37095926570202664 0  1 1 0
234 31 1.7368290427985187 19.316556780990993 3.3109592657020244 0  1 1 0
235 39 -1.423170957201478 21.477556780990994 3.0209592657020323 0  1 1 0
236 28 -1.6831709572014972 24.797556780991016 5.130959265702046 0  1 1 0
237 34 1.5368290427985016 26.48655678099101 4.160959265702047 0  1 1 0
238 28 3.126829042798505 28.417556780990992 1.250959265702022 0  1 1 0
239 28 5.336829042798513 31.527556780991006 0.4909592657020312 0  1 1 0
240 13 6.99682904279851 53.346556780990994 -44.279040734297965 0  1 1 0
241 1 8.686829042798507 51.94655678099099 -41.14904073429797 0  1 1 0
242 8 12.466829042798508 52.216556780991 -40.779040734297965 0  1 1 0
243 8 14.566829042798503 49.03655678099099 -41.28904073429797 0  1 1 0
244 12 16.586829042798513 46.82755678099099 -38.889040734297964 0  1 1 1
245 1 20.21682904279851 47.127556780991 -37.71904073429796 0  1 1 0
246 8 23.636829042798524 45.716556780991 -38.79904073429796 0  1 1 0
247 12 25.2568290427985 44.477556780990994 -42.17904073429797 0  1 1 1
248 4 24.846829042798504 40.95655678099101 -43.48904073429797 0  1 1 -1
249 16 28.406829042798506 40.126556780990995 -42.20904073429797 0  1 1 0
250 8 30.04682904279852 36.757556780990996 -41.42904073429797 0  1 1 0
251 12 33.4468290427985 35.14755678099101 -40.68904073429796 0  1 1 1
252 1 36.71682904279851 35.497556780991005 -42.59904073429797 0  1 1 0
253 12 38.45682904279852 32.60655678099101 -44.48904073429797 0  1 1 1
254 17 39.99682904279851 31.047556780991016 -41.34904073429797 0  1 1 0
255 12 41.616829042798514 27.54655678099101 -41.10904073429796 0  1 1 1
256 1 39.83682904279851 24.136556780991015 -40.389040734297964 0  1 1 0
257 40 39.2268290427985 23.767556780991015 -36.54904073429796 0  1 1 0
258 36 37.21682904279851 21.027556780991006 -34.639040734297964 0  1 1 0
259 22 33.51682904279852 21.646556780991006 -33.999040734297964 0  1 1 1
260 36 32.2268290427985 20.806556780991002 -30.559040734297966 0  1 1 0
261 26 29.826829042798522 17.876556780990995 -31.229040734297968 0  1 1 0
262 22 32.23682904279852 15.14755678099101 -30.029040734297965 0  1 1 1
263 21 34.49682904279851 17.447556780990993 -27.92904073429797 0  1 1 0
264 28 32.77682904279851 16.307556780991007 -24.639040734297964 0  1 1 0
265 31 33.04682904279852 12.517556780991015 -25.53904073429797 0  1 1 0
266 26 29.886829042798524 11.386556780991015 -23.529040734297965 0  1 1 0
267 34 27.636829042798524 8.89755678099101 -25.53904073429797 0  1 1 0
268 35 24.116829042798514 10.596556780990994 -25.419040734297965 0  1 1 0
269 40 24.27682904279851 13.176556780991007 -28.18904073429796 0  1 1 0
270 28 23.956829042798518 16.82755678099099 -26.76904073429796 0  1 1 0
271 22 21.856829042798523 18.156556780990996 -29.749040734297964 0  1 1 1
272 30 19.2868290427985 15.286556780990992 -29.079040734297962 0  1 1 0
273 29 19.426829042798516 15.707556780991013 -25.109040734297963 0  1 1 0.5
274 22 19.056829042798512 19.54655678099101 -25.79904073429796 0  1 1 1
275 29 15.52682904279851 18.776556780991 -27.31904073429797 0  1 1 0.5
276 31 14.416829042798526 15.26655678099101 -26.199040734297967 0  1 1 0
277 32 12.816829042798503 16.216556780991 -22.70904073429797 0  1 1 1
278 36 12.326829042798522 19.926556780991007 -23.419040734297965 0  1 1 0
279 22 10.136829042798524 19.307556780991007 -26.629040734297973 0  1 1 1
280 37 7.276829042798511 17.557556780991007 -24.53904073429797 0  1 1 0
281 37 6.2068290427985175 21.076556780991012 -23.28904073429797 0  1 1 0
282 36 6.116829042798514 19.826556780991012 -19.529040734297965 0  1 1 0
283 29 9.926829042798516 20.767556780991015 -19.25904073429797 0  1 1 0.5
284 28 12.036829042798502 23.917556780990992 -19.979040734297968 0  1 1 0
285 22 14.696829042798498 24.406556780990996 -22.639040734297964 0  1 1 1
286 40 18.086829042798513 22.896556780991006 -21.75904073429797 0  1 1 0
287 28 20.856829042798523 25.087556780991008 -23.309040734297966 0  1 1 0
288 21 23.686829042798507 23.51655678099101 -25.609040734297963 0  1 1 0
289 37 26.206829042798518 23.257556780990996 -22.68904073429796 0  1 1 0
290 21 23.71682904279851 21.997556780991005 -20.099040734297972 0  1 1 0
291 21 22.646829042798515 19.186556780990998 -22.54904073429796 0  1 1 0
292 40 26.316829042798503 17.85755678099099 -22.50904073429797 0  1 1 0
293 39 26.27682904279851 18.10755678099099 -18.64904073429797 0  1 1 0
294 36 23.066829042798503 16.01655678099101 -18.14904073429797 0  1 1 0
295 21 24.2568290427985 13.477556780990994 -20.79904073429796 0  1 1 0
296 21 27.576829042798522 13.146556780991006 -18.92904073429797 0  1 1 0
297 30 25.54682904279852 12.346556780990994 -15.689040734297961 0  1 1 0
298 31 23.066829042798503 9.826556780991012 -17.42904073429797 0  1 1 0
299 27 26.316829042798503 8.127556780991 -18.79904073429796 0  1 1 -1
300 39 27.96682904279851 7.697556780990993 -15.349040734297972 0  1 1 0
301 31 24.636829042798524 6.426556780991007 -13.949040734297967 0  1 1 0
302 37 24.456829042798518 3.9775567809909944 -16.93904073429796 0  1 1 0
303 21 28.146829042798515 2.887556780990991 -16.419040734297965 0  1 1 0
304 27 27.836829042798513 2.5075567809909955 -12.54904073429796 0  1 1 -1
305 40 24.686829042798507 0.25755678099099555 -13.079040734297962 0  1 1 0
306 31 26.156829042798506 -1.8234432190089933 -15.989040734297973 0  1 1 0
307 27 29.54682904279852 -2.433443219009007 -14.14904073429797 0  1 1 -1
308 31 27.4768290427985 -3.7424432190090045 -11.219040734297963 0  1 1 0
309 21 24.956829042798518 -5.772443219009006 -13.309040734297966 0  1 1 0
310 28 27.906829042798506 -7.522443219009006 -15.15904073429796 0  1 1 0
311 23 29.52682904279851 -8.23344321900899 -11.739040734297973 0  1 1 0
312 21 26.156829042798506 -9.783443219009001 -10.729040734297968 0  1 1 0
313 36 25.886829042798524 -11.972443219008994 -13.949040734297967 0  1 1 0
314 32 29.416829042798526 -13.203443219008989 -13.379040734297973 0  1 1 1
315 24 28.186829042798507 -14.442443219008993 -9.919040734297965 0  1 1 -1
316 31 25.5368290427985 -16.73344321900899 -11.64904073429797 0  1 1 0
317 32 27.866829042798514 -17.963443219009008 -14.589040734297967 0  1 1 1
318 40 25.456829042798518 -16.573443219008993 -17.219040734297963 0  1 1 0
319 32 27.176829042798516 -15.093443219009004 -20.26904073429796 0  1 1 1
320 22 24.96682904279851 -11.972443219008994 -20.40904073429796 0  1 1 1
321 30 23.126829042798505 -9.343443219009004 -18.36904073429797 0  1 1 0
322 37 19.436829042798507 -10.473443219008999 -17.889040734297964 0  1 1 0
323 35 16.186829042798507 -8.452443219008984 -16.849040734297972 0  1 1 0
324 22 16.916829042798526 -9.813443219009002 -13.259040734297969 0  1 1 1
325 29 20.636829042798524 -8.853443219008994 -13.239040734297973 0  1 1 0.5
326 31 19.566829042798503 -5.302443219009007 -14.229040734297968 0  1 1 0
327 26 16.836829042798513 -5.022443219009006 -11.459040734297972 0  1 1 0
328 31 19.48682904279852 -6.332443219009008 -9.01904073429796 0  1 1 0
329 21 21.956829042798518 -3.64244321900901 -10.059040734297966 0  1 1 0
330 30 19.5368290427985 -0.6324432190089908 -10.26904073429796 0  1 1 0
331 22 18.336829042798513 -1.5524432190090067 -6.649040734297955 0  1 1 1
332 28 22.126829042798505 -1.5524432190090067 -5.569040734297971 0  1 1 0
333 24 22.02682904279851 2.01655678099101 -4.30904073429798 0  1 1 -1
334 27 19.136829042798524 3.387556780990991 -2.109040734297963 0  1 1 -1
335 27 18.326829042798522 6.327556780990989 -4.499040734297978 0  1 1 -1
336 31 17.926829042798516 4.066556780990993 -7.639040734297964 0  1 1 0
337 24 15.9768290427985 1.4365567809909976 -5.729040734297968 0  1 1 -1
338 36 13.616829042798514 4.386556780991015 -4.849040734297972 0  1 1 0
339 31 13.51682904279852 5.35755678099099 -8.629040734297973 0  1 1 0
340 30 12.386829042798524 1.807556780991007 -9.979040734297968 0  1 1 0
341 32 10.01682904279852 1.5565567809910021 -6.959040734297957 0  1 1 1
342 21 6.236829042798519 2.036556780990992 -7.6990407342979665 0  1 1 0
343 37 6.936829042798507 1.137556780990991 -11.479040734297968 0  1 1 0
344 30 6.76682904279852 -2.0934432190090035 -13.509040734297969 0  1 1 0
345 21 10.01682904279852 -3.662443219008992 -15.089040734297967 0  1 1 0
346 28 10.696829042798498 -7.302443219009007 -16.03904073429797 0  1 1 0
347 28 12.196829042798498 -10.183443219009007 -13.869040734297968 0  1 1 0
348 28 11.99682904279851 -8.332443219009008 -10.439040734297961 0  1 1 0
349 40 14.106829042798523 -9.38244321900899 -7.4290407342979705 0  1 1 0
350 30 13.056829042798512 -12.513443219008991 -5.549040734297961 0  1 1 0
351 35 11.866829042798514 -12.313443219009002 -1.78904073429797 0  1 1 0
352 29 13.456829042798518 -14.252443219008995 1.1509592657020278 0  1 1 0.5
353 30 11.986829042798519 -17.713443219009008 2.0709592657020437 0  1 1 0
354 29 12.49682904279851 -17.442443219008993 5.850959265702045 0  1 1 0.5
355 12 13.636829042798524 -13.912443219008992 6.750959265702022 0  1 1 1
356 16 11.77682904279851 -10.442443219008993 6.790959265702043 0  1 1 0
357 11 12.296829042798521 -6.832443219009008 8.110959265702036 0  1 1 0
358 10 9.666829042798526 -7.033443219009001 10.880959265702046 0  1 1 0
359 8 9.916829042798526 -7.98344321900899 14.560959265702024 0  1 1 0
360 12 8.836829042798513 -11.612443219009009 15.240959265702031 0  1 1 1
361 12 9.5068290427985 -14.48344321900899 17.70095926570204 0  1 1 1
362 8 11.906829042798506 -17.123443219009005 16.23095926570204 0  1 1 0
363 6 13.846829042798504 -14.643443219008986 14.040959265702043 0  1 1 0
364 6 17.436829042798507 -13.222443219008994 13.650959265702028 0  1 1 0
365 12 18.706829042798518 -10.312443219008998 11.680959265702029 0  1 1 1
366 17 22.176829042798516 -11.942443219008993 11.100959265702045 0  1 1 0
367 20 22.77682904279851 -14.353443219008994 8.120959265702027 0  1 1 0
368 13 33.33682904279851 7.5075567809909955 -22.14904073429797 0  1 1 0
369 15 35.57682904279852 6.836556780991003 -25.14904073429797 0  1 1 0
370 7 34.626829042798505 4.6465567809910056 -28.129040734297973 0  1 1 -1
371 15 35.35682904279852 0.8965567809910056 -27.81904073429797 0  1 1 0
372 1 38.55682904279851 -0.3824432190089908 -29.699040734297967 0  1 1 0
373 12 38.05682904279851 -1.6734432190089876 -33.34904073429797 0  1 1 1
374 16 38.85682904279852 -5.183443219009007 -34.62904073429797 0  1 1 0
375 1 40.426829042798516 -6.3934432190089865 -38.03904073429797 0  1 1 0
376 15 38.876829042798505 -5.323443219008993 -41.499040734297964 0  1 1 0
377 1 37.08682904279851 -7.7424432190090045 -43.72904073429797 0  1 1 0
378 15 37.48682904279852 -8.903443219009006 -47.39904073429797 0  1 1 0
379 12 36.07682904279852 -6.823443219008993 -50.20904073429797 0  1 1 1
380 12 32.416829042798526 -7.433443219009007 -51.35904073429796 0  1 1 1
381 8 30.946829042798498 -8.552443219009007 -54.75904073429797 0  1 1 0
382 16 29.4768290427985 -6.073443219008993 -57.26904073429796 0  1 1 0
383 12 25.7568290427985 -5.433443219009007 -56.419040734297965 0  1 1 1
384 12 22.846829042798504 -7.513443219008991 -57.93904073429796 0  1 1 1
385 1 19.96682904279851 -6.2424432190090045 -60.18904073429796 0  1 1 0
386 20 17.166829042798526 -4.323443219008993 -58.65904073429796 0  1 1 0
387 17 13.386829042798524 -3.4234432190089876 -58.96904073429796 0  1 1 0
388 12 11.566829042798503 -0.7834432190090013 -61.04904073429796 0  1 1 1
389 1 10.806829042798512 2.536556780990992 -59.33904073429797 0  1 1 0
390 6 7.656829042798506 2.8265567809910124 -57.029040734297965 0  1 1 0
391 12 4.876829042798505 5.51655678099101 -56.779040734297965 0  1 1 1
392 12 4.9568290427985175 8.807556780991007 -54.76904073429796 0  1 1 1
393 4 8.566829042798503 9.216556780990999 -56.00904073429797 0  1 1 -1
394 8 9.806829042798512 5.907556780991001 -54.42904073429797 0  1 1 0
395 12 8.456829042798518 7.346556780990994 -51.08904073429797 0  1 1 1
396 12 12.086829042798513 7.626556780990995 -49.70904073429797 0  1 1 1
397 2 12.166829042798526 8.166556780991016 -45.98904073429797 0  1 1 1
398 12 12.676829042798516 11.646556780991006 -44.45904073429797 0  1 1 1
399 22 15.876829042798505 11.667556780990992 -42.249040734297964 0  1 1 1
400 36 16.056829042798512 10.697556780990993 -38.56904073429797 0  1 1 0
401 22 18.71682904279851 10.887556780990991 -35.72904073429797 0  1 1 1
402 32 18.696829042798498 7.997556780991005 -33.25904073429797 0  1 1 1
403 27 17.24682904279851 9.087556780991008 -29.86904073429797 0  1 1 -1
404 36 16.2868290427985 5.637556780990991 -28.53904073429797 0  1 1 0
405 39 19.156829042798506 5.306556780991002 -25.829040734297962 0  1 1 0
406 36 19.7868290427985 1.4565567809910078 -26.489040734297973 0  1 1 0
407 30 22.406829042798506 2.7275567809909944 -29.109040734297963 0  1 1 0
408 39 24.406829042798506 3.986556780991009 -26.14904073429797 0  1 1 0
409 40 23.636829042798524 1.0965567809909942 -23.51904073429796 0  1 1 0
410 39 25.79682904279852 -1.4924432190090045 -25.43904073429796 0  1 1 0
411 32 28.596829042798504 0.9965567809909999 -26.469040734297963 0  1 1 1
412 40 28.956829042798518 1.736556780991009 -22.68904073429796 0  1 1 0
413 31 28.7268290427985 -2.0334432190090013 -21.95904073429797 0  1 1 0