#LAMMPS data file

1607 atoms
211 ellipsoids
4533 bonds
0 angles
0 dihedrals
0 impropers

44 atom types
3515 bond types
0 angle types

-140.05541436403254 140.05541436403254 xlo xhi
-140.05541436403254 140.05541436403254 ylo yhi
-140.05541436403254 140.05541436403254 zlo zhi

Atoms

195 1 28.64718658268643 24.517380344806043 -32.59333759884858 0  1 2 0
196 2 29.757186582686415 23.827380344806045 -28.97333759884858 0  1 2 1
197 17 26.857186582686438 21.607380344806046 -27.72333759884858 0  1 2 0
198 12 25.13718658268644 19.887380344806047 -30.65333759884858 0  1 2 1
199 6 26.567186582686418 19.047380344806044 -34.143337598848575 0  1 2 0
200 17 29.967186582686423 19.71738034480603 -32.48333759884858 0  1 2 0
201 1 33.44718658268644 19.16738034480605 -33.923337598848576 0  1 2 0
202 2 36.65718658268642 18.23738034480604 -31.953337598848577 0  1 2 1
203 12 38.72718658268644 20.577380344806045 -34.23333759884858 0  1 2 1
204 16 38.72718658268644 24.40738034480603 -34.66333759884858 0  1 2 0
205 17 37.58718658268643 25.057380344806035 -31.073337598848575 0  1 2 0
206 8 37.96718658268642 28.70738034480604 -30.063337598848577 0  1 2 0
207 8 38.90718658268642 29.557380344806035 -33.66333759884858 0  1 2 0
208 12 42.32718658268644 27.837380344806036 -33.41333759884858 0  1 2 1
209 1 42.93718658268642 24.637380344806047 -35.47333759884858 0  1 2 0
210 15 44.96718658268642 22.867380344806037 -32.76333759884858 0  1 2 0
211 2 43.06718658268642 20.797380344806044 -30.23333759884858 0  1 2 1
212 12 42.20718658268643 20.95738034480604 -26.523337598848578 0  1 2 1
213 6 43.90718658268642 18.537380344806053 -24.22333759884858 0  1 2 0
214 11 42.40718658268642 15.93738034480603 -21.90333759884858 0  1 2 0
215 1 42.37718658268642 16.97738034480605 -18.22333759884858 0  1 2 0
216 17 43.06718658268642 13.337380344806036 -17.003337598848574 0  1 2 0
217 12 46.70718658268643 13.627380344806028 -18.093337598848578 0  1 2 1
218 1 47.41718658268644 16.40738034480603 -15.563337598848577 0  1 2 0
219 1 47.41718658268644 16.367380344806037 -11.813337598848577 0  1 2 0
220 2 44.84718658268642 19.19738034480605 -11.413337598848571 0  1 2 1
221 12 43.09718658268642 19.96738034480603 -8.163337598848571 0  1 2 1
222 16 39.64718658268643 18.43738034480603 -7.683337598848581 0  1 2 0
223 1 36.58718658268643 19.597380344806027 -5.663337598848571 0  1 2 0
224 15 37.07718658268644 19.887380344806047 -1.9233375988485761 0  1 2 0
225 1 36.18718658268642 16.91738034480605 0.30666240115142784 0  1 2 0
226 17 33.22718658268644 18.847380344806027 1.866662401151416 0  1 2 0
227 8 30.047186582686436 20.587380344806036 0.836662401151429 0  1 2 0
228 8 29.88718658268644 23.75738034480605 -1.2133375988485824 0  1 2 0
229 20 32.70718658268643 25.93738034480603 0.106662401151425 0  1 2 0
230 12 33.34718658268642 28.97738034480605 -2.113337598848574 0  1 2 1
231 12 31.027186582686426 27.17738034480604 -4.553337598848572 0  1 2 1
232 15 32.61718658268643 24.097380344806027 -6.283337598848576 0  1 2 0
233 9 31.66718658268644 22.337380344806036 -9.40333759884858 0  1 2 0.5
234 2 29.14718658268643 20.127380344806028 -7.573337598848582 0  1 2 1
235 39 25.547186582686436 19.25738034480605 -8.453337598848577 0  1 2 0
236 22 22.11718658268643 20.097380344806027 -6.963337598848582 0  1 2 1
237 35 20.59718658268642 17.42738034480604 -4.5233375988485705 0  1 2 0
238 28 18.477186582686443 14.847380344806027 -6.40333759884858 0  1 2 0
239 37 20.13718658268644 15.47738034480605 -9.813337598848577 0  1 2 0
240 40 23.067186582686418 13.027380344806033 -9.563337598848577 0  1 2 0
241 21 20.437186582686422 10.777380344806033 -7.863337598848574 0  1 2 0
242 31 18.41718658268644 10.867380344806037 -11.113337598848574 0  1 2 0
243 22 21.44718658268644 9.837380344806036 -13.243337598848576 0  1 2 1
244 27 22.207186582686433 7.117380344806037 -10.593337598848578 0  1 2 -1
245 30 18.607186582686438 5.787380344806053 -10.973337598848573 0  1 2 0
246 22 18.91718658268644 5.837380344806036 -14.853337598848576 0  1 2 1
247 22 22.16718658268644 3.877380344806028 -14.563337598848577 0  1 2 1
248 39 20.957186582686433 1.0273803448060335 -12.26333759884858 0  1 2 0
249 26 17.567186582686418 0.7573803448060517 -14.023337598848578 0  1 2 0
250 44 19.37718658268642 -0.16261965519396426 -17.323337598848575 0  1 2 1
251 36 22.15718658268642 -2.4726196551939665 -16.103337598848576 0  1 2 0
252 37 21.327186582686437 -6.012619655193959 -15.033337598848576 0  1 2 0
253 27 23.94718658268644 -7.122619655193972 -12.503337598848574 0  1 2 -1
254 31 23.217186582686423 -8.472619655193967 -9.063337598848577 0  1 2 0
255 31 23.937186582686422 -5.462619655193947 -6.7733375988485705 0  1 2 0
256 30 24.12718658268642 -7.06261965519397 -3.353337598848583 0  1 2 0
257 22 27.59718658268642 -8.402619655193973 -2.5333375988485756 0  1 2 1
258 32 27.90718658268642 -12.172619655193955 -3.073337598848582 0  1 2 1
259 31 30.307186582686427 -13.332619655193952 -0.3233375988485818 0  1 2 0
260 35 28.467186582686423 -11.152619655193973 2.156662401151422 0  1 2 0
261 34 25.307186582686427 -12.912619655193964 0.8866624011514261 0  1 2 0
262 26 26.84718658268642 -16.422619655193955 1.3266624011514239 0  1 2 0
263 22 27.69718658268644 -15.472619655193967 4.966662401151424 0  1 2 1
264 31 24.107186582686438 -14.31261965519397 5.556662401151428 0  1 2 0
265 40 22.327186582686437 -17.27261965519395 4.146662401151417 0  1 2 0
266 22 24.517186582686435 -19.622619655193972 6.216662401151424 0  1 2 1
267 27 23.40718658268642 -17.612619655193953 9.246662401151426 0  1 2 -1
268 30 19.687186582686422 -17.902619655193973 8.436662401151423 0  1 2 0
269 21 20.09718658268642 -21.692619655193965 7.856662401151425 0  1 2 0
270 26 21.797186582686436 -22.472619655193967 11.176662401151418 0  1 2 0
271 24 18.92718658268643 -21.04261965519396 13.20666240115142 0  1 2 -1
272 34 16.63718658268644 -23.632619655193963 11.666662401151427 0  1 2 0
273 32 18.807186582686427 -26.742619655193963 11.276662401151427 0  1 2 1
274 37 22.41718658268644 -28.052619655193965 11.806662401151428 0  1 2 0
275 24 25.077186582686437 -29.352619655193962 9.336662401151429 0  1 2 -1
276 31 23.87718658268642 -28.04261965519396 5.946662401151428 0  1 2 0
277 22 25.477186582686443 -26.752619655193953 2.7066624011514193 0  1 2 1
278 34 24.13718658268644 -24.592619655193957 -0.20333759884857727 0  1 2 0
279 26 25.437186582686422 -25.102619655193962 -3.7433375988485835 0  1 2 0
280 36 26.88718658268644 -21.872619655193972 -5.313337598848577 0  1 2 0
281 36 23.687186582686422 -21.902619655193973 -7.5133375988485795 0  1 2 0
282 21 21.337186582686428 -22.102619655193962 -4.473337598848573 0  1 2 0
283 40 22.937186582686422 -19.09261965519397 -2.823337598848582 0  1 2 0
284 33 22.687186582686422 -17.252619655193968 -6.173337598848576 0  1 2 0
285 21 19.017186582686435 -18.382619655193963 -6.683337598848581 0  1 2 0
286 31 18.317186582686418 -16.80261965519395 -3.2633375988485795 0  1 2 0
287 26 20.15718658268642 -13.622619655193972 -4.283337598848576 0  1 2 0
288 27 18.267186582686435 -13.252619655193968 -7.603337598848583 0  1 2 -1
289 21 15.057186582686427 -13.672619655193955 -5.613337598848574 0  1 2 0
290 36 16.267186582686435 -11.30261965519395 -2.843337598848578 0  1 2 0
291 27 16.94718658268644 -8.432619655193946 -5.2433375988485835 0  1 2 -1
292 21 13.837186582686428 -9.06261965519397 -7.353337598848583 0  1 2 0
293 39 12.037186582686417 -9.092619655193971 -3.9633375988485824 0  1 2 0
294 31 13.227186582686443 -5.7726196551939495 -2.7033375988485773 0  1 2 0
295 40 13.107186582686438 -3.9526196551939563 -6.043337598848581 0  1 2 0
296 21 9.41718658268644 -4.862619655193953 -6.623337598848579 0  1 2 0
297 31 8.88718658268644 -3.7226196551939665 -3.0233375988485705 0  1 2 0
298 34 10.577186582686437 -0.3426196551939711 -3.843337598848578 0  1 2 0
299 27 8.337186582686428 0.17738034480603915 -6.893337598848575 0  1 2 -1
300 24 5.387186582686439 -0.22261965519396654 -4.383337598848584 0  1 2 -1
301 37 7.137186582686439 1.6773803448060391 -1.5333375988485756 0  1 2 0
302 23 7.64718658268643 4.677380344806039 -3.8033375988485716 0  1 2 0
303 31 4.027186582686426 4.4773803448060505 -5.0133375988485795 0  1 2 0
304 25 2.9671865826864234 4.567380344806054 -1.3633375988485739 0  1 2 0
305 21 5.157186582686421 7.667380344806048 -0.7933375988485807 0  1 2 0
306 30 3.367186582686429 9.547380344806044 -3.5833375988485727 0  1 2 0
307 29 0.1871865826864223 8.497380344806032 -1.853337598848583 0  1 2 0.5
308 21 1.7271865826864428 10.337380344806036 1.1566624011514222 0  1 2 0
309 32 2.9771865826864428 13.22738034480605 -1.1133375988485739 0  1 2 1
310 22 6.64718658268643 12.627380344806028 -0.6333375988485841 0  1 2 1
311 40 9.777186582686426 12.107380344806046 -2.7133375988485824 0  1 2 0
312 37 11.457186582686433 10.44738034480605 0.30666240115142784 0  1 2 0
313 30 10.767186582686435 6.827380344806045 1.356662401151425 0  1 2 0
314 33 10.357186582686438 6.057380344806035 5.066662401151419 0  1 2 0
315 35 9.687186582686422 2.907380344806029 7.146662401151417 0  1 2 0
316 32 5.967186582686423 3.7373803448060414 6.996662401151426 0  1 2 1
317 24 5.597186582686419 3.1673803448060482 3.2666624011514216 0  1 2 -1
318 30 7.097186582686419 -0.2826196551939688 3.616662401151416 0  1 2 0
319 26 4.6671865826864405 -1.5326196551939688 6.426662401151418 0  1 2 0
320 31 1.6771865826864314 -0.10261965519396199 4.496662401151426 0  1 2 0
321 21 2.8971865826864303 -1.9526196551939563 1.356662401151425 0  1 2 0
322 22 3.517186582686435 -5.362619655193953 3.0366624011514176 0  1 2 1
323 22 0.09718658268641889 -5.232619655193957 4.84666240115142 0  1 2 1
324 30 -1.912813417313572 -4.012619655193959 1.7666624011514216 0  1 2 0
325 22 -0.16281341731357202 -6.762619655193959 -0.3133375988485767 0  1 2 1
326 28 -1.1328134173135709 -9.202619655193956 2.4666624011514244 0  1 2 0
327 27 2.4271865826864314 -10.56261965519397 3.176662401151418 0  1 2 -1
328 22 2.097186582686419 -9.52261965519395 6.806662401151428 0  1 2 1
329 21 -0.6528134173135811 -10.712619655193947 9.22666240115143 0  1 2 0
330 16 41.38718658268644 18.317380344806054 -2.423337598848576 0  1 2 0
331 8 40.86718658268643 17.857380344806046 1.3166624011514187 0  1 2 0
332 2 38.737186582686434 20.44738034480605 3.106662401151425 0  1 2 1
333 8 41.36718658268643 22.097380344806027 5.286662401151418 0  1 2 0
334 12 44.58718658268643 21.68738034480603 7.2566624011514165 0  1 2 1
335 8 45.027186582686426 20.23738034480604 10.686662401151423 0  1 2 0
336 8 46.70718658268643 18.017380344806043 13.356662401151425 0  1 2 0
337 12 47.047186582686436 14.18738034480603 13.086662401151429 0  1 2 1
338 8 43.86718658268643 12.247380344806032 13.196662401151428 0  1 2 0
339 11 41.66718658268644 15.337380344806036 13.20666240115142 0  1 2 0
340 8 39.09718658268642 14.897380344806038 10.47666240115143 0  1 2 0
341 12 41.18718658268642 12.097380344806027 8.98666240115142 0  1 2 1
342 8 38.68718658268642 9.307380344806035 8.356662401151425 0  1 2 0
343 8 40.09718658268642 5.847380344806027 7.746662401151426 0  1 2 0
344 1 38.997186582686425 4.197380344806049 11.106662401151425 0  1 2 0
345 12 35.55718658268643 2.647380344806038 11.666662401151427 0  1 2 1
346 2 33.527186582686426 3.9873803448060414 14.536662401151418 0  1 2 1
347 9 30.92718658268643 1.637380344806047 15.966662401151424 0  1 2 0.5
348 2 31.057186582686427 -1.862619655193953 17.606662401151425 0  1 2 1
349 12 28.577186582686437 -4.742619655193948 17.26666240115142 0  1 2 1
350 20 26.44718658268644 -2.892619655193954 14.686662401151423 0  1 2 0
351 11 26.34718658268642 -2.782619655193969 10.936662401151423 0  1 2 0
352 2 28.507186582686415 -5.932619655193946 10.386662401151426 0  1 2 1
353 4 27.957186582686433 -9.762619655193959 10.166662401151427 0  1 2 -1
354 3 24.607186582686438 -11.482619655193957 9.676662401151418 0  1 2 0
355 30 21.84718658268642 -9.242619655193948 8.196662401151428 0  1 2 0
356 26 23.737186582686434 -6.162619655193964 9.47666240115143 0  1 2 0
357 28 26.567186582686418 -7.0226196551939495 6.9866624011514205 0  1 2 0
358 30 24.44718658268644 -6.202619655193956 3.866662401151416 0  1 2 0
359 37 25.88718658268644 -2.922619655193955 2.836662401151429 0  1 2 0
360 32 24.247186582686425 0.4873803448060414 2.5066624011514165 0  1 2 1
361 35 25.687186582686422 1.6773803448060391 -0.853337598848583 0  1 2 0
362 21 24.247186582686425 -1.432619655193946 -2.4533375988485773 0  1 2 0
363 30 20.84718658268642 -0.852619655193962 -0.8433375988485778 0  1 2 0
364 22 20.87718658268642 2.7373803448060414 -2.073337598848582 0  1 2 1
365 22 21.607186582686438 1.4673803448060312 -5.603337598848583 0  1 2 1
366 31 18.837186582686428 -1.1726196551939552 -5.193337598848572 0  1 2 0
367 21 16.227186582686443 1.4573803448060403 -4.193337598848572 0  1 2 0
368 22 17.62718658268642 3.5873803448060357 -7.053337598848572 0  1 2 1
369 22 17.057186582686427 0.5473803448060437 -9.303337598848572 0  1 2 1
370 28 13.497186582686425 0.7773803448060335 -7.933337598848581 0  1 2 0
371 28 13.087186582686428 4.387380344806047 -9.183337598848581 0  1 2 0
372 40 13.447186582686442 6.0273803448060335 -5.673337598848576 0  1 2 0
373 32 14.86718658268643 9.587380344806036 -5.923337598848576 0  1 2 1
374 22 15.11718658268643 10.257380344806052 -2.2133375988485824 0  1 2 1
375 30 15.747186582686425 7.657380344806029 0.6166624011514159 0  1 2 0
376 36 15.447186582686442 8.22738034480605 4.386662401151426 0  1 2 0
377 28 18.42718658268643 7.18738034480603 6.566662401151419 0  1 2 0
378 31 15.86718658268643 5.137380344806047 8.556662401151428 0  1 2 0
379 30 15.467186582686423 2.8073803448060346 5.536662401151418 0  1 2 0
380 39 18.477186582686443 0.5073803448060517 5.786662401151418 0  1 2 0
381 27 17.777186582686426 -1.31261965519397 9.076662401151424 0  1 2 -1
382 27 14.057186582686427 -1.5526196551939506 8.056662401151428 0  1 2 -1
383 37 15.177186582686431 -3.0826196551939518 4.686662401151423 0  1 2 0
384 22 17.14718658268643 -5.662619655193964 6.646662401151417 0  1 2 1
385 28 13.937186582686422 -6.332619655193952 8.636662401151426 0  1 2 0
386 40 11.63718658268644 -6.902619655193973 5.546662401151423 0  1 2 0
387 31 14.497186582686425 -8.852619655193962 3.836662401151429 0  1 2 0
388 32 14.857186582686438 -11.182619655193946 6.856662401151425 0  1 2 1
389 40 11.187186582686422 -12.202619655193956 7.196662401151428 0  1 2 0
390 34 11.197186582686442 -12.932619655193946 3.4466624011514284 0  1 2 0
391 31 14.467186582686423 -14.852619655193962 3.1666624011514273 0  1 2 0
392 27 13.817186582686418 -16.84261965519397 6.386662401151426 0  1 2 -1
393 23 10.467186582686423 -17.962619655193947 4.936662401151423 0  1 2 0
394 40 12.16718658268644 -19.102619655193962 1.6766624011514182 0  1 2 0
395 30 15.13718658268644 -20.712619655193947 3.426662401151418 0  1 2 0
396 22 12.957186582686433 -22.692619655193965 5.946662401151428 0  1 2 1
397 24 10.927186582686431 -24.15261965519396 3.0266624011514267 0  1 2 -1
398 21 13.987186582686434 -24.872619655193958 0.8066624011514278 0  1 2 0
399 40 15.557186582686427 -26.642619655193954 3.906662401151422 0  1 2 0
400 37 12.267186582686435 -28.452619655193956 4.646662401151417 0  1 2 0
401 39 12.39718658268643 -29.532619655193955 0.9866624011514205 0  1 2 0
402 37 16.09718658268642 -30.632619655193963 1.3066624011514278 0  1 2 0
403 27 15.38718658268644 -32.942619655193965 4.266662401151422 0  1 2 -1
404 29 12.357186582686438 -34.172619655193955 2.326662401151424 0  1 2 0.5
405 21 14.797186582686436 -35.052619655193965 -0.5333375988485756 0  1 2 0
406 44 17.087186582686428 -36.942619655193965 1.8266624011514239 0  1 2 1
407 22 19.88718658268644 -34.272619655193964 1.4366624011514233 0  1 2 1
408 44 22.017186582686435 -31.912619655193964 3.4466624011514284 0  1 2 1
409 37 23.107186582686438 -29.922619655193955 0.39666240115141704 0  1 2 0
410 40 20.257186582686415 -27.532619655193955 -0.5533375988485716 0  1 2 0
411 37 19.797186582686436 -27.232619655193957 -4.2733375988485705 0  1 2 0
412 21 18.38718658268644 -24.562619655193956 -6.613337598848574 0  1 2 0
413 33 15.477186582686443 -26.892619655193954 -7.343337598848578 0  1 2 0
414 24 14.347186582686419 -26.802619655193965 -3.65333759884858 0  1 2 -1
415 40 14.567186582686418 -23.01261965519396 -3.883337598848584 0  1 2 0
416 40 12.37718658268642 -23.06261965519397 -7.043337598848581 0  1 2 0
417 39 10.047186582686436 -25.222619655193967 -4.813337598848577 0  1 2 0
418 21 10.087186582686428 -22.662619655193964 -1.9533375988485773 0  1 2 0
419 31 9.477186582686443 -19.732619655193957 -4.323337598848582 0  1 2 0
420 32 6.527186582686426 -21.352619655193962 -6.0233375988485705 0  1 2 1
421 22 4.327186582686437 -22.142619655193954 -2.9833375988485784 0  1 2 1
422 26 5.327186582686437 -18.682619655193946 -1.6533375988485801 0  1 2 0
423 28 4.117186582686429 -16.862619655193953 -4.783337598848576 0  1 2 0
424 22 7.477186582686443 -15.342619655193971 -5.90333759884858 0  1 2 1
425 37 8.247186582686425 -17.952619655193956 -8.713337598848582 0  1 2 0
426 31 11.88718658268644 -18.412619655193964 -9.823337598848582 0  1 2 0
427 39 12.657186582686421 -18.83261965519395 -13.533337598848576 0  1 2 0
428 28 16.027186582686426 -19.942619655193965 -15.093337598848578 0  1 2 0
429 34 17.247186582686425 -22.222619655193967 -12.233337598848578 0  1 2 0
430 28 15.16718658268644 -25.352619655193962 -13.04333759884858 0  1 2 0
431 28 13.12718658268642 -27.412619655193964 -15.44333759884858 0  1 2 0
432 16 -7.362813417313561 -71.18261965519396 -8.853337598848583 0  1 2 0
433 8 -9.162813417313572 -71.38261965519396 -5.563337598848577 0  1 2 0
434 2 -8.11281341731356 -69.45261965519396 -2.5333375988485756 0  1 2 1
435 8 -7.932813417313582 -70.73261965519396 1.1366624011514261 0  1 2 0
436 12 -10.802813417313558 -69.91261965519396 3.4766624011514295 0  1 2 1
437 6 -10.792813417313567 -67.10261965519396 6.086662401151429 0  1 2 0
438 8 -11.11281341731356 -66.99261965519396 9.936662401151423 0  1 2 0
439 8 -13.522813417313557 -65.07261965519396 12.286662401151418 0  1 2 0
440 12 -12.37281341731358 -61.47261965519397 12.636662401151426 0  1 2 1
441 17 -13.962813417313583 -60.202619655193956 15.84666240115142 0  1 2 0
442 2 -11.402813417313581 -58.302619655193965 17.966662401151424 0  1 2 1
443 1 -11.86281341731356 -55.782619655193955 20.83666240115143 0  1 2 0
444 12 -13.442813417313573 -52.43261965519396 19.826662401151424 0  1 2 1
445 1 -10.312813417313578 -50.68261965519396 21.006662401151416 0  1 2 0
446 12 -8.522813417313557 -52.062619655193956 17.936662401151423 0  1 2 1
447 17 -10.672813417313563 -50.04261965519396 15.426662401151418 0  1 2 0
448 2 -8.36281341731356 -47.772619655193964 13.386662401151426 0  1 2 1
449 16 -8.952813417313564 -44.43261965519396 15.176662401151418 0  1 2 0
450 16 -8.912813417313572 -46.01261965519396 18.62666240115142 0  1 2 0
451 2 -5.7928134173135675 -47.96261965519396 17.59666240115142 0  1 2 1
452 21 -4.382813417313571 -44.43261965519396 16.866662401151416 0  1 2 0
453 28 -5.672813417313563 -42.692619655193965 20.006662401151416 0  1 2 0
454 31 -7.732813417313565 -40.37261965519396 17.76666240115142 0  1 2 0
455 26 -11.36281341731356 -39.312619655193956 17.856662401151425 0  1 2 0
456 34 -11.442813417313573 -38.452619655193956 14.186662401151423 0  1 2 0
457 35 -12.222813417313574 -40.692619655193965 11.186662401151423 0  1 2 0
458 40 -8.962813417313583 -42.24261965519396 9.876662401151421 0  1 2 0
459 28 -10.902813417313581 -44.46261965519396 7.416662401151427 0  1 2 0
460 22 -12.87281341731358 -41.50261965519395 6.0066624011514165 0  1 2 1
461 40 -9.642813417313562 -39.50261965519395 5.4766624011514295 0  1 2 0
462 29 -7.942813417313573 -42.522619655193964 3.8166624011514187 0  1 2 0.5
463 22 -10.802813417313558 -42.57261965519396 1.2766624011514267 0  1 2 1
464 31 -10.452813417313564 -38.802619655193965 0.9466624011514284 0  1 2 0
465 31 -6.772813417313557 -39.21261965519396 -0.1333375988485841 0  1 2 0
466 22 -7.652813417313581 -42.312619655193956 -2.2233375988485733 0  1 2 1
467 32 -10.442813417313573 -40.892619655193954 -4.303337598848572 0  1 2 1
468 28 -9.292813417313567 -37.24261965519396 -4.413337598848571 0  1 2 0
469 23 -6.8328134173135595 -37.54261965519396 -7.313337598848577 0  1 2 0
470 39 -3.7528134173135754 -36.952619655193956 -5.143337598848575 0  1 2 0
471 21 -1.662813417313572 -40.00261965519395 -6.163337598848571 0  1 2 0
472 27 -1.5428134173135675 -43.532619655193955 -7.703337598848577 0  1 2 -1
473 22 -1.3028134173135584 -44.942619655193965 -4.15333759884858 0  1 2 1
474 40 -1.5928134173135788 -43.922619655193955 -0.5033375988485744 0  1 2 0
475 28 0.38718658268643935 -45.63261965519396 2.306662401151428 0  1 2 0
476 21 -1.8828134173135709 -46.392619655193954 5.296662401151423 0  1 2 0
477 28 0.337186582686428 -44.442619655193965 7.7366624011514205 0  1 2 0
478 21 -0.5128134173135663 -41.18261965519396 5.9766624011514295 0  1 2 0
479 35 -4.322813417313569 -41.022619655193964 6.826662401151424 0  1 2 0
480 40 -3.4728134173135743 -41.61261965519395 10.506662401151416 0  1 2 0
481 39 -0.8428134173135788 -38.82261965519396 10.756662401151416 0  1 2 0
482 31 -3.2628134173135663 -36.60261965519396 8.796662401151423 0  1 2 0
483 21 -6.432813417313582 -37.272619655193964 10.836662401151429 0  1 2 0
484 21 -4.402813417313581 -36.61261965519395 14.046662401151423 0  1 2 0
485 40 -3.672813417313563 -33.162619655193964 12.566662401151419 0  1 2 0
486 31 -7.222813417313574 -32.32261965519396 11.536662401151418 0  1 2 0
487 27 -8.432813417313582 -33.22261965519397 15.046662401151423 0  1 2 -1
488 39 -5.5828134173135595 -31.132619655193963 16.58666240115143 0  1 2 0
489 31 -6.612813417313561 -28.132619655193963 14.47666240115143 0  1 2 0
490 37 -10.262813417313566 -28.732619655193957 15.356662401151425 0  1 2 0
491 21 -9.35281341731357 -28.632619655193963 19.01666240115142 0  1 2 0
492 27 -7.112813417313561 -25.552619655193965 18.536662401151418 0  1 2 -1
493 30 -9.86281341731356 -23.432619655193946 17.056662401151428 0  1 2 0
494 31 -12.542813417313567 -24.782619655193955 19.356662401151425 0  1 2 0
495 27 -10.772813417313557 -24.172619655193955 22.69666240115143 0  1 2 -1
496 31 -10.452813417313564 -20.49261965519395 21.756662401151416 0  1 2 0
497 21 -14.12281341731358 -20.402619655193973 20.58666240115143 0  1 2 0
498 28 -15.462813417313583 -21.922619655193955 23.87666240115142 0  1 2 0
499 23 -13.38281341731357 -19.53261965519397 25.95666240115142 0  1 2 0
500 21 -14.802813417313558 -16.692619655193965 23.95666240115142 0  1 2 0
501 21 -18.40281341731358 -17.922619655193955 24.47666240115143 0  1 2 0
502 22 -17.87281341731358 -18.352619655193962 28.216662401151424 0  1 2 1
503 24 -16.59281341731358 -14.732619655193957 28.296662401151423 0  1 2 -1
504 23 -19.542813417313567 -13.612619655193953 26.12666240115142 0  1 2 0
505 32 -21.692813417313573 -15.402619655193973 28.81666240115142 0  1 2 1
506 32 -22.87281341731358 -17.902619655193973 26.136662401151426 0  1 2 1
507 37 -23.312813417313578 -21.672619655193955 26.246662401151426 0  1 2 0
508 22 -23.562813417313578 -22.642619655193954 22.466662401151424 0  1 2 1
509 30 -20.712813417313583 -21.882619655193963 20.046662401151423 0  1 2 0
510 30 -21.992813417313585 -19.82261965519396 17.146662401151417 0  1 2 0
511 35 -19.982813417313565 -18.57261965519396 14.076662401151424 0  1 2 0
512 22 -19.412813417313572 -15.202619655193956 15.946662401151428 0  1 2 1
513 29 -17.222813417313574 -17.152619655193973 18.506662401151416 0  1 2 0.5
514 31 -15.432813417313582 -18.852619655193962 15.636662401151426 0  1 2 0
515 26 -14.702813417313564 -15.422619655193955 14.09666240115142 0  1 2 0
516 31 -12.86281341731356 -14.432619655193946 17.306662401151428 0  1 2 0
517 21 -11.11281341731356 -17.80261965519395 17.636662401151426 0  1 2 0
518 40 -9.322813417313569 -17.30261965519395 14.216662401151424 0  1 2 0
519 22 -7.902813417313581 -13.962619655193947 15.356662401151425 0  1 2 1
520 23 -7.222813417313574 -14.31261965519397 19.09666240115142 0  1 2 0
521 24 -4.172813417313563 -16.432619655193946 18.356662401151425 0  1 2 -1
522 27 -1.412813417313572 -14.942619655193965 16.22666240115143 0  1 2 -1
523 27 -0.8428134173135788 -18.222619655193967 14.286662401151418 0  1 2 -1
524 31 -4.532813417313577 -18.932619655193946 13.506662401151416 0  1 2 0
525 23 -4.612813417313561 -15.362619655193953 12.406662401151422 0  1 2 0
526 32 -1.7628134173135663 -16.02261965519395 9.936662401151423 0  1 2 1
527 31 -3.982813417313565 -18.78261965519397 8.326662401151424 0  1 2 0
528 31 -7.532813417313577 -17.53261965519397 8.70666240115142 0  1 2 0
529 28 -7.592813417313579 -13.82261965519396 9.546662401151423 0  1 2 0
530 22 -9.452813417313564 -12.82261965519396 6.326662401151424 0  1 2 1
531 40 -10.86281341731356 -16.252619655193968 5.366662401151416 0  1 2 0
532 37 -14.592813417313579 -15.482619655193957 5.086662401151429 0  1 2 0
533 30 -16.65281341731358 -17.03261965519397 7.896662401151417 0  1 2 0
534 21 -20.37281341731358 -17.182619655193946 7.206662401151419 0  1 2 0
535 26 -22.202813417313564 -14.962619655193947 9.756662401151416 0  1 2 0
536 28 -18.84281341731358 -14.192619655193965 11.446662401151428 0  1 2 0
537 28 -18.80281341731356 -10.54261965519396 10.386662401151426 0  1 2 0
538 40 -15.742813417313585 -8.752619655193968 11.606662401151425 0  1 2 0
539 31 -14.272813417313557 -7.942619655193965 15.066662401151419 0  1 2 0
540 35 -14.712813417313583 -4.492619655193948 16.756662401151416 0  1 2 0
541 23 -11.672813417313563 -2.2926196551939597 15.97666240115143 0  1 2 0
542 30 -11.272813417313557 1.4573803448060403 15.48666240115142 0  1 2 0
543 26 -8.092813417313579 3.2473803448060323 14.306662401151428 0  1 2 0
544 36 -6.482813417313565 5.347380344806027 17.12666240115142 0  1 2 0
545 20 -6.382813417313571 8.45738034480604 14.876662401151421 0  1 2 0
546 11 -10.202813417313564 8.367380344806037 14.796662401151423 0  1 2 0
547 11 -11.13281341731357 8.267380344806043 18.496662401151426 0  1 2 0
548 15 -10.472813417313574 11.657380344806029 20.156662401151422 0  1 2 0
549 12 -8.542813417313567 11.827380344806045 23.416662401151427 0  1 2 1
550 12 -10.772813417313557 10.067380344806054 25.966662401151424 0  1 2 1
551 17 -12.762813417313566 12.67738034480604 27.866662401151416 0  1 2 0
552 7 -10.322813417313569 15.47738034480605 27.186662401151423 0  1 2 -1
553 16 -11.142813417313562 16.297380344806044 23.606662401151425 0  1 2 0
554 16 -14.812813417313578 15.737380344806041 24.536662401151418 0  1 2 0
555 12 -15.512813417313566 19.42738034480604 23.936662401151423 0  1 2 1
556 16 -17.442813417313573 21.377380344806028 21.366662401151416 0  1 2 0
557 12 -16.412813417313572 24.70738034480604 19.826662401151424 0  1 2 1
558 16 -15.472813417313574 28.00738034480605 21.436662401151423 0  1 2 0
559 12 -17.792813417313567 30.95738034480604 22.106662401151425 0  1 2 1
560 1 -29.062813417313578 -54.60261965519396 0.46666240115142443 0  1 2 0
561 12 -29.762813417313566 -54.332619655193966 -3.363337598848574 0  1 2 1
562 16 -32.35281341731357 -55.40261965519396 -5.913337598848571 0  1 2 0
563 1 -32.46281341731358 -58.62261965519396 -7.983337598848578 0  1 2 0
564 15 -30.88281341731357 -59.84261965519396 -10.103337598848583 0  1 2 0
565 1 -27.58281341731356 -59.082619655193966 -8.503337598848574 0  1 2 0
566 15 -25.432813417313582 -57.13261965519396 -8.643337598848575 0  1 2 0
567 12 -27.35281341731357 -53.802619655193965 -8.913337598848571 0  1 2 1
568 12 -27.37281341731358 -50.12261965519396 -7.833337598848573 0  1 2 1
569 8 -30.892813417313562 -49.522619655193964 -6.443337598848572 0  1 2 0
570 16 -33.07281341731357 -51.10261965519396 -3.8033375988485716 0  1 2 0
571 12 -36.65281341731357 -50.34261965519396 -4.90333759884858 0  1 2 1
572 12 -37.32281341731357 -54.162619655193964 -5.053337598848572 0  1 2 1
573 1 -34.752813417313575 -55.43261965519396 -2.5633375988485767 0  1 2 0
574 20 -35.63281341731357 -58.26261965519396 -0.2233375988485733 0  1 2 0
575 17 -39.202813417313564 -58.562619655193956 -1.8133375988485767 0  1 2 0
576 12 -38.55281341731357 -62.15261965519396 -3.0433375988485807 0  1 2 1
577 17 -42.10281341731357 -62.09261965519396 -4.4933375988485835 0  1 2 0
578 6 -43.65281341731357 -60.10261965519396 -7.333337598848573 0  1 2 0
579 12 -46.592813417313565 -59.142619655193954 -5.053337598848572 0  1 2 1
580 12 -44.202813417313564 -57.21261965519396 -2.8133375988485767 0  1 2 1
581 4 -42.66281341731357 -53.79261965519396 -3.5633375988485767 0  1 2 -1
582 8 -40.13281341731357 -51.522619655193964 -1.7433375988485835 0  1 2 0
583 12 -38.90281341731357 -48.13261965519396 -0.643337598848575 0  1 2 1
584 12 -38.49281341731357 -44.82261965519396 -2.5633375988485767 0  1 2 1
585 22 -35.42281341731358 -43.642619655193954 -4.413337598848571 0  1 2 1
586 22 -33.71281341731357 -40.61261965519395 -2.7933375988485807 0  1 2 1
587 32 -31.002813417313575 -38.062619655193956 -3.7033375988485773 0  1 2 1
588 37 -27.87281341731358 -39.282619655193955 -2.0533375988485716 0  1 2 0
589 22 -27.712813417313583 -38.68261965519396 1.7166624011514244 0  1 2 1
590 32 -25.732813417313565 -35.99261965519396 3.5466624011514227 0  1 2 1
591 27 -22.242813417313585 -36.22261965519397 4.9866624011514205 0  1 2 -1
592 36 -20.202813417313564 -34.00261965519395 7.366662401151416 0  1 2 0
593 39 -17.522813417313557 -34.21261965519396 9.97666240115143 0  1 2 0
594 21 -20.042813417313567 -32.65261965519396 12.446662401151428 0  1 2 0
595 30 -20.192813417313573 -35.84261965519396 14.546662401151423 0  1 2 0
596 39 -16.40281341731358 -35.692619655193965 15.106662401151425 0  1 2 0
597 40 -16.532813417313577 -31.90261965519396 15.47666240115143 0  1 2 0
598 39 -18.80281341731356 -32.36261965519395 18.526662401151427 0  1 2 0
599 32 -16.87281341731358 -35.49261965519396 19.606662401151425 0  1 2 1
600 40 -13.672813417313563 -33.35261965519396 19.94666240115143 0  1 2 0
601 31 -15.58281341731356 -30.442619655193965 21.466662401151424 0  1 2 0